# vtk DataFile Version 5.1
vtk output
ASCII
DATASET POLYDATA
POINTS 1441 double
12.07 55.7 0 10.59 49.3 0 12.78 49.2 0 
7.87 48 0 7.87 48 0 7.87 48 0 
9.95 51.53 0 9.95 51.53 0 9.73 52.38 0 
8.67 49 0 8.67 49 0 7.65 51.11 0 
11.58 48.13 0 11.58 48.13 0 11.58 48.13 0 
7.15 53.71 0 8.77 50.1 0 8.94 48.46 0 
11.34 48 0 10.75 52.81 0 5.75 43.71 0 
0.25 47.15 0 4.81 50.1 0 4.8 44.63 0 
7.56 47.91 0 -1.9 49.55 0 2.31 51 0 
5.72 45.18 0 4.8 44.13 0 7.42 43.73 0 
2.18 48.68 0 2.36 48.85 0 2.16 48.73 0 
4.73 44.33 0 5.38 49.15 0 11.33 44.48 0 
11.33 44.48 0 12.3 42.03 0 12.3 42.03 0 
12.3 42.03 0 12.3 42.03 0 12.3 42.03 0 
12.3 42.03 0 12.3 42.03 0 12.3 42.03 0 
12.3 42.03 0 12.3 42.03 0 12.3 42.03 0 
12.3 42.03 0 12.3 42.03 0 12.3 42.03 0 
8.63 45.8 0 8.63 45.8 0 8.63 45.8 0 
8.63 45.8 0 8.63 45.8 0 8.63 45.8 0 
8.63 45.8 0 8.63 45.8 0 8.63 45.8 0 
8.63 45.8 0 8.63 45.8 0 8.63 45.8 0 
8.02 45.21 0 16.63 40.17 0 16.63 40.17 0 
5.18 52.11 0 5.18 52.11 0 5.18 52.11 0 
5.18 52.11 0 5.18 52.11 0 5.18 52.11 0 
5.18 52.11 0 4.38 52 0 4.38 52 0 
4.38 52 0 4.38 52 0 4.38 52 0 
4.38 52 0 4.38 52 0 6.56 53.13 0 
6.56 53.13 0 6.56 53.13 0 6.53 53.25 0 
6.53 53.25 0 6.53 53.25 0 6.53 53.25 0 
6.53 53.25 0 4.64 52.76 0 4.64 52.76 0 
3.58 51.45 0 3.58 51.45 0 3.58 51.45 0 
-2.45 51.69 0 -2.45 51.69 0 -2.45 51.69 0 
5.12 51.18 0 5.12 51.18 0 5.12 51.18 0 
-0.37 39.46 0 7.12 46.49 0 7.12 46.49 0 
7.42 46.42 0 7.42 46.42 0 9.78 47.51 0 
15.36 47.08 0 11.41 47.28 0 11.41 47.28 0 
11.41 47.28 0 14.33 46.63 0 14.3 48.31 0 
14.3 48.31 0 14.3 48.31 0 14.3 48.31 0 
14.3 48.31 0 13.05 47.9 0 24.7 60.45 0 
10.66 59.9 0 10.66 59.9 0 9.8 59.9 0 
9.8 59.9 0 10.95 63.45 0 12 57.75 0 
13.92 56.82 0 14.67 63.17 0 18.08 59.33 0 
18.08 59.33 0 20.25 63.83 0 21.25 48.73 0 
21.25 48.73 0 19.1 47.5 0 12.07 55.7 0 
10.59 49.3 0 12.78 49.2 0 7.87 48 0 
7.87 48 0 7.87 48 0 9.95 51.53 0 
9.95 51.53 0 9.73 52.38 0 8.67 49 0 
8.67 49 0 7.65 51.11 0 11.58 48.13 0 
11.58 48.13 0 11.58 48.13 0 7.15 53.71 0 
8.77 50.1 0 8.94 48.46 0 11.34 48 0 
10.75 52.81 0 5.75 43.71 0 0.25 47.15 0 
4.81 50.1 0 4.8 44.63 0 7.56 47.91 0 
-1.9 49.55 0 2.31 51 0 5.72 45.18 0 
4.8 44.13 0 7.42 43.73 0 2.18 48.68 0 
2.36 48.85 0 2.16 48.73 0 4.73 44.33 0 
5.38 49.15 0 11.33 44.48 0 11.33 44.48 0 
12.3 42.03 0 12.3 42.03 0 12.3 42.03 0 
12.3 42.03 0 12.3 42.03 0 12.3 42.03 0 
12.3 42.03 0 12.3 42.03 0 12.3 42.03 0 
12.3 42.03 0 12.3 42.03 0 12.3 42.03 0 
12.3 42.03 0 12.3 42.03 0 8.63 45.8 0 
8.63 45.8 0 8.63 45.8 0 8.63 45.8 0 
8.63 45.8 0 8.63 45.8 0 8.63 45.8 0 
8.63 45.8 0 8.63 45.8 0 8.63 45.8 0 
8.63 45.8 0 8.63 45.8 0 8.02 45.21 0 
16.63 40.17 0 16.63 40.17 0 5.18 52.11 0 
5.18 52.11 0 5.18 52.11 0 5.18 52.11 0 
5.18 52.11 0 5.18 52.11 0 5.18 52.11 0 
4.38 52 0 4.38 52 0 4.38 52 0 
4.38 52 0 4.38 52 0 4.38 52 0 
4.38 52 0 6.56 53.13 0 6.56 53.13 0 
6.56 53.13 0 6.53 53.25 0 6.53 53.25 0 
6.53 53.25 0 6.53 53.25 0 6.53 53.25 0 
4.64 52.76 0 4.64 52.76 0 3.58 51.45 0 
3.58 51.45 0 3.58 51.45 0 -2.45 51.69 0 
-2.45 51.69 0 -2.45 51.69 0 5.12 51.18 0 
5.12 51.18 0 5.12 51.18 0 -0.37 39.46 0 
7.12 46.49 0 7.12 46.49 0 7.42 46.42 0 
7.42 46.42 0 9.78 47.51 0 15.36 47.08 0 
11.41 47.28 0 11.41 47.28 0 11.41 47.28 0 
14.33 46.63 0 14.3 48.31 0 14.3 48.31 0 
14.3 48.31 0 14.3 48.31 0 14.3 48.31 0 
13.05 47.9 0 24.7 60.45 0 10.66 59.9 0 
10.66 59.9 0 9.8 59.9 0 9.8 59.9 0 
10.95 63.45 0 12 57.75 0 13.92 56.82 0 
14.67 63.17 0 18.08 59.33 0 18.08 59.33 0 
20.25 63.83 0 21.25 48.73 0 21.25 48.73 0 
19.1 47.5 0 12.07 55.7 1 10.59 49.3 1 
12.78 49.2 1 7.87 48 1 7.87 48 1 
7.87 48 1 9.95 51.53 1 9.95 51.53 1 
9.73 52.38 1 8.67 49 1 8.67 49 1 
7.65 51.11 1 11.58 48.13 1 11.58 48.13 1 
11.58 48.13 1 7.15 53.71 1 8.77 50.1 1 
8.94 48.46 1 11.34 48 1 10.75 52.81 1 
5.75 43.71 1 0.25 47.15 1 4.81 50.1 1 
4.8 44.63 1 7.56 47.91 1 -1.9 49.55 1 
2.31 51 1 5.72 45.18 1 4.8 44.13 1 
7.42 43.73 1 2.18 48.68 1 2.36 48.85 1 
2.16 48.73 1 4.73 44.33 1 5.38 49.15 1 
11.33 44.48 1 11.33 44.48 1 12.3 42.03 1 
12.3 42.03 1 12.3 42.03 1 12.3 42.03 1 
12.3 42.03 1 12.3 42.03 1 12.3 42.03 1 
12.3 42.03 1 12.3 42.03 1 12.3 42.03 1 
12.3 42.03 1 12.3 42.03 1 12.3 42.03 1 
12.3 42.03 1 8.63 45.8 1 8.63 45.8 1 
8.63 45.8 1 8.63 45.8 1 8.63 45.8 1 
8.63 45.8 1 8.63 45.8 1 8.63 45.8 1 
8.63 45.8 1 8.63 45.8 1 8.63 45.8 1 
8.63 45.8 1 8.02 45.21 1 16.63 40.17 1 
16.63 40.17 1 5.18 52.11 1 5.18 52.11 1 
5.18 52.11 1 5.18 52.11 1 5.18 52.11 1 
5.18 52.11 1 5.18 52.11 1 4.38 52 1 
4.38 52 1 4.38 52 1 4.38 52 1 
4.38 52 1 4.38 52 1 4.38 52 1 
6.56 53.13 1 6.56 53.13 1 6.56 53.13 1 
6.53 53.25 1 6.53 53.25 1 6.53 53.25 1 
6.53 53.25 1 6.53 53.25 1 4.64 52.76 1 
4.64 52.76 1 3.58 51.45 1 3.58 51.45 1 
3.58 51.45 1 -2.45 51.69 1 -2.45 51.69 1 
-2.45 51.69 1 5.12 51.18 1 5.12 51.18 1 
5.12 51.18 1 -0.37 39.46 1 7.12 46.49 1 
7.12 46.49 1 7.42 46.42 1 7.42 46.42 1 
9.78 47.51 1 15.36 47.08 1 11.41 47.28 1 
11.41 47.28 1 11.41 47.28 1 14.33 46.63 1 
14.3 48.31 1 14.3 48.31 1 14.3 48.31 1 
14.3 48.31 1 14.3 48.31 1 13.05 47.9 1 
24.7 60.45 1 10.66 59.9 1 10.66 59.9 1 
9.8 59.9 1 9.8 59.9 1 10.95 63.45 1 
12 57.75 1 13.92 56.82 1 14.67 63.17 1 
18.08 59.33 1 18.08 59.33 1 20.25 63.83 1 
21.25 48.73 1 21.25 48.73 1 19.1 47.5 1 
12.07 55.7 2 10.59 49.3 2 12.78 49.2 2 
7.87 48 2 7.87 48 2 7.87 48 2 
9.95 51.53 2 9.95 51.53 2 9.73 52.38 2 
8.67 49 2 8.67 49 2 7.65 51.11 2 
11.58 48.13 2 11.58 48.13 2 11.58 48.13 2 
7.15 53.71 2 8.77 50.1 2 8.94 48.46 2 
11.34 48 2 10.75 52.81 2 5.75 43.71 2 
0.25 47.15 2 4.81 50.1 2 4.8 44.63 2 
7.56 47.91 2 -1.9 49.55 2 2.31 51 2 
5.72 45.18 2 4.8 44.13 2 7.42 43.73 2 
2.18 48.68 2 2.36 48.85 2 2.16 48.73 2 
4.73 44.33 2 5.38 49.15 2 11.33 44.48 2 
11.33 44.48 2 12.3 42.03 2 12.3 42.03 2 
12.3 42.03 2 12.3 42.03 2 12.3 42.03 2 
12.3 42.03 2 12.3 42.03 2 12.3 42.03 2 
12.3 42.03 2 12.3 42.03 2 12.3 42.03 2 
12.3 42.03 2 12.3 42.03 2 12.3 42.03 2 
8.63 45.8 2 8.63 45.8 2 8.63 45.8 2 
8.63 45.8 2 8.63 45.8 2 8.63 45.8 2 
8.63 45.8 2 8.63 45.8 2 8.63 45.8 2 
8.63 45.8 2 8.63 45.8 2 8.63 45.8 2 
8.02 45.21 2 16.63 40.17 2 16.63 40.17 2 
5.18 52.11 2 5.18 52.11 2 5.18 52.11 2 
5.18 52.11 2 5.18 52.11 2 5.18 52.11 2 
5.18 52.11 2 4.38 52 2 4.38 52 2 
4.38 52 2 4.38 52 2 4.38 52 2 
4.38 52 2 4.38 52 2 6.56 53.13 2 
6.56 53.13 2 6.56 53.13 2 6.53 53.25 2 
6.53 53.25 2 6.53 53.25 2 6.53 53.25 2 
6.53 53.25 2 4.64 52.76 2 4.64 52.76 2 
3.58 51.45 2 3.58 51.45 2 3.58 51.45 2 
-2.45 51.69 2 -2.45 51.69 2 -2.45 51.69 2 
5.12 51.18 2 5.12 51.18 2 5.12 51.18 2 
-0.37 39.46 2 7.12 46.49 2 7.12 46.49 2 
7.42 46.42 2 7.42 46.42 2 9.78 47.51 2 
15.36 47.08 2 11.41 47.28 2 11.41 47.28 2 
11.41 47.28 2 14.33 46.63 2 14.3 48.31 2 
14.3 48.31 2 14.3 48.31 2 14.3 48.31 2 
14.3 48.31 2 13.05 47.9 2 24.7 60.45 2 
10.66 59.9 2 10.66 59.9 2 9.8 59.9 2 
9.8 59.9 2 10.95 63.45 2 12 57.75 2 
13.92 56.82 2 14.67 63.17 2 18.08 59.33 2 
18.08 59.33 2 20.25 63.83 2 21.25 48.73 2 
21.25 48.73 2 19.1 47.5 2 12.07 55.7 3 
10.59 49.3 3 12.78 49.2 3 7.87 48 3 
7.87 48 3 7.87 48 3 9.95 51.53 3 
9.95 51.53 3 9.73 52.38 3 8.67 49 3 
8.67 49 3 7.65 51.11 3 11.58 48.13 3 
11.58 48.13 3 11.58 48.13 3 7.15 53.71 3 
8.77 50.1 3 8.94 48.46 3 11.34 48 3 
10.75 52.81 3 5.75 43.71 3 0.25 47.15 3 
4.81 50.1 3 4.8 44.63 3 7.56 47.91 3 
-1.9 49.55 3 2.31 51 3 5.72 45.18 3 
4.8 44.13 3 7.42 43.73 3 2.18 48.68 3 
2.36 48.85 3 2.16 48.73 3 4.73 44.33 3 
5.38 49.15 3 11.33 44.48 3 11.33 44.48 3 
12.3 42.03 3 12.3 42.03 3 12.3 42.03 3 
12.3 42.03 3 12.3 42.03 3 12.3 42.03 3 
12.3 42.03 3 12.3 42.03 3 12.3 42.03 3 
12.3 42.03 3 12.3 42.03 3 12.3 42.03 3 
12.3 42.03 3 12.3 42.03 3 8.63 45.8 3 
8.63 45.8 3 8.63 45.8 3 8.63 45.8 3 
8.63 45.8 3 8.63 45.8 3 8.63 45.8 3 
8.63 45.8 3 8.63 45.8 3 8.63 45.8 3 
8.63 45.8 3 8.63 45.8 3 8.02 45.21 3 
16.63 40.17 3 16.63 40.17 3 5.18 52.11 3 
5.18 52.11 3 5.18 52.11 3 5.18 52.11 3 
5.18 52.11 3 5.18 52.11 3 5.18 52.11 3 
4.38 52 3 4.38 52 3 4.38 52 3 
4.38 52 3 4.38 52 3 4.38 52 3 
4.38 52 3 6.56 53.13 3 6.56 53.13 3 
6.56 53.13 3 6.53 53.25 3 6.53 53.25 3 
6.53 53.25 3 6.53 53.25 3 6.53 53.25 3 
4.64 52.76 3 4.64 52.76 3 3.58 51.45 3 
3.58 51.45 3 3.58 51.45 3 -2.45 51.69 3 
-2.45 51.69 3 -2.45 51.69 3 5.12 51.18 3 
5.12 51.18 3 5.12 51.18 3 -0.37 39.46 3 
7.12 46.49 3 7.12 46.49 3 7.42 46.42 3 
7.42 46.42 3 9.78 47.51 3 15.36 47.08 3 
11.41 47.28 3 11.41 47.28 3 11.41 47.28 3 
14.33 46.63 3 14.3 48.31 3 14.3 48.31 3 
14.3 48.31 3 14.3 48.31 3 14.3 48.31 3 
13.05 47.9 3 24.7 60.45 3 10.66 59.9 3 
10.66 59.9 3 9.8 59.9 3 9.8 59.9 3 
10.95 63.45 3 12 57.75 3 13.92 56.82 3 
14.67 63.17 3 18.08 59.33 3 18.08 59.33 3 
20.25 63.83 3 21.25 48.73 3 21.25 48.73 3 
19.1 47.5 3 12.07 55.7 4 10.59 49.3 4 
12.78 49.2 4 7.87 48 4 7.87 48 4 
7.87 48 4 9.95 51.53 4 9.95 51.53 4 
9.73 52.38 4 8.67 49 4 8.67 49 4 
7.65 51.11 4 11.58 48.13 4 11.58 48.13 4 
11.58 48.13 4 7.15 53.71 4 8.77 50.1 4 
8.94 48.46 4 11.34 48 4 10.75 52.81 4 
5.75 43.71 4 0.25 47.15 4 4.81 50.1 4 
4.8 44.63 4 7.56 47.91 4 -1.9 49.55 4 
2.31 51 4 5.72 45.18 4 4.8 44.13 4 
7.42 43.73 4 2.18 48.68 4 2.36 48.85 4 
2.16 48.73 4 4.73 44.33 4 5.38 49.15 4 
11.33 44.48 4 11.33 44.48 4 12.3 42.03 4 
12.3 42.03 4 12.3 42.03 4 12.3 42.03 4 
12.3 42.03 4 12.3 42.03 4 12.3 42.03 4 
12.3 42.03 4 12.3 42.03 4 12.3 42.03 4 
12.3 42.03 4 12.3 42.03 4 12.3 42.03 4 
12.3 42.03 4 8.63 45.8 4 8.63 45.8 4 
8.63 45.8 4 8.63 45.8 4 8.63 45.8 4 
8.63 45.8 4 8.63 45.8 4 8.63 45.8 4 
8.63 45.8 4 8.63 45.8 4 8.63 45.8 4 
8.63 45.8 4 8.02 45.21 4 16.63 40.17 4 
16.63 40.17 4 5.18 52.11 4 5.18 52.11 4 
5.18 52.11 4 5.18 52.11 4 5.18 52.11 4 
5.18 52.11 4 5.18 52.11 4 4.38 52 4 
4.38 52 4 4.38 52 4 4.38 52 4 
4.38 52 4 4.38 52 4 4.38 52 4 
6.56 53.13 4 6.56 53.13 4 6.56 53.13 4 
6.53 53.25 4 6.53 53.25 4 6.53 53.25 4 
6.53 53.25 4 6.53 53.25 4 4.64 52.76 4 
4.64 52.76 4 3.58 51.45 4 3.58 51.45 4 
3.58 51.45 4 -2.45 51.69 4 -2.45 51.69 4 
-2.45 51.69 4 5.12 51.18 4 5.12 51.18 4 
5.12 51.18 4 -0.37 39.46 4 7.12 46.49 4 
7.12 46.49 4 7.42 46.42 4 7.42 46.42 4 
[...]
POINT_DATA 1441
SCALARS I131 double
LOOKUP_TABLE default
0.0176 2.9 1.38 5.7 3.9 5.66 0.0387 4.2 0.018 
0 0 1.921 3.8 4.2 2.7 0.248 3.441 3.286 
2.7 0.16 6.299999 1.5 5.5 0.36 2.9 0.25 0.008 
0.444 2.552999 1.4 6.33 1.929999 0 0.4 9.44 7.015 
2.89 5.258 5.064 4.91 3.841 2.087 1.791 1.546 1.121 
2.915 2.319 1.804 1.111 1.37 1.185 23.35 18.38 20.47 
19.76 15.75 15.28 15.19 11.82 11.59 12.1 12.72 12.39 
0 0.709 5.013 0.3 2 4 6 8 6 
4.8 0 0 0 0 0 0 0 0.29 
7.19 5.61 0.01 2.2 9 9 5 0 0 
0.78 5.12 1.67 0.07 1.1 2.1 1.68 7.8 3.5 
0 2.775 1.85 2.6196 2.8231 4.884 2.7343 3.552 4.736 
6.105 4.255 5.449925 2.127477 0.957039 2.171908 2.415295 0.853809 0 
0.001 0.02 0 0 0.3 0.000856 0.00197 0.101 0.0585 
0.042 0.227 0.452 0.254 4.1 0.0176 2.9 1.38 5.7 
3.9 5.66 0.0387 4.2 0.018 0 0 1.921 3.8 
4.2 2.7 0.248 3.441 3.286 2.7 0.16 6.299999 1.5 
5.5 0.36 2.9 0.25 0.008 0.444 2.552999 1.4 6.33 
1.929999 0 0.4 9.44 7.015 2.89 5.258 5.064 4.91 
3.841 2.087 1.791 1.546 1.121 2.915 2.319 1.804 1.111 
1.37 1.185 23.35 18.38 20.47 19.76 15.75 15.28 15.19 
11.82 11.59 12.1 12.72 12.39 0 0.709 5.013 0.3 
2 4 6 8 6 4.8 0 0 0 
0 0 0 0 0.29 7.19 5.61 0.01 2.2 
9 9 5 0 0 0.78 5.12 1.67 0.07 
1.1 2.1 1.68 7.8 3.5 0 2.775 1.85 2.6196 
2.8231 4.884 2.7343 3.552 4.736 6.105 4.255 5.449925 2.127477 
0.957039 2.171908 2.415295 0.853809 0 0.001 0.02 0 0 
0.3 0.000856 0.00197 0.101 0.0585 0.042 0.227 0.452 0.254 
4.1 0.0176 2.9 1.38 5.7 3.9 5.66 0.0387 4.2 
0.018 0 0 1.921 3.8 4.2 2.7 0.248 3.441 
3.286 2.7 0.16 6.299999 1.5 5.5 0.36 2.9 0.25 
0.008 0.444 2.552999 1.4 6.33 1.929999 0 0.4 9.44 
7.015 2.89 5.258 5.064 4.91 3.841 2.087 1.791 1.546 
1.121 2.915 2.319 1.804 1.111 1.37 1.185 23.35 18.38 
20.47 19.76 15.75 15.28 15.19 11.82 11.59 12.1 12.72 
12.39 0 0.709 5.013 0.3 2 4 6 8 
6 4.8 0 0 0 0 0 0 0 
0.29 7.19 5.61 0.01 2.2 9 9 5 0 
0 0.78 5.12 1.67 0.07 1.1 2.1 1.68 7.8 
3.5 0 2.775 1.85 2.6196 2.8231 4.884 2.7343 3.552 
4.736 6.105 4.255 5.449925 2.127477 0.957039 2.171908 2.415295 0.853809 
0 0.001 0.02 0 0 0.3 0.000856 0.00197 0.101 
0.0585 0.042 0.227 0.452 0.254 4.1 0.0176 2.9 1.38 
5.7 3.9 5.66 0.0387 4.2 0.018 0 0 1.921 
3.8 4.2 2.7 0.248 3.441 3.286 2.7 0.16 6.299999 
1.5 5.5 0.36 2.9 0.25 0.008 0.444 2.552999 1.4 
6.33 1.929999 0 0.4 9.44 7.015 2.89 5.258 5.064 
4.91 3.841 2.087 1.791 1.546 1.121 2.915 2.319 1.804 
1.111 1.37 1.185 23.35 18.38 20.47 19.76 15.75 15.28 
15.19 11.82 11.59 12.1 12.72 12.39 0 0.709 5.013 
0.3 2 4 6 8 6 4.8 0 0 
0 0 0 0 0 0.29 7.19 5.61 0.01 
2.2 9 9 5 0 0 0.78 5.12 1.67 
0.07 1.1 2.1 1.68 7.8 3.5 0 2.775 1.85 
2.6196 2.8231 4.884 2.7343 3.552 4.736 6.105 4.255 5.449925 
2.127477 0.957039 2.171908 2.415295 0.853809 0 0.001 0.02 0 
0 0.3 0.000856 0.00197 0.101 0.0585 0.042 0.227 0.452 
0.254 4.1 0.0176 2.9 1.38 5.7 3.9 5.66 0.0387 
4.2 0.018 0 0 1.921 3.8 4.2 2.7 0.248 
3.441 3.286 2.7 0.16 6.299999 1.5 5.5 0.36 2.9 
0.25 0.008 0.444 2.552999 1.4 6.33 1.929999 0 0.4 
9.44 7.015 2.89 5.258 5.064 4.91 3.841 2.087 1.791 
1.546 1.121 2.915 2.319 1.804 1.111 1.37 1.185 23.35 
18.38 20.47 19.76 15.75 15.28 15.19 11.82 11.59 12.1 
12.72 12.39 0 0.709 5.013 0.3 2 4 6 
8 6 4.8 0 0 0 0 0 0 
0 0.29 7.19 5.61 0.01 2.2 9 9 5 
0 0 0.78 5.12 1.67 0.07 1.1 2.1 1.68 
7.8 3.5 0 2.775 1.85 2.6196 2.8231 4.884 2.7343 
3.552 4.736 6.105 4.255 5.449925 2.127477 0.957039 2.171908 2.415295 
0.853809 0 0.001 0.02 0 0 0.3 0.000856 0.00197 
0.101 0.0585 0.042 0.227 0.452 0.254 4.1 0.0176 2.9 
1.38 5.7 3.9 5.66 0.0387 4.2 0.018 0 0 
1.921 3.8 4.2 2.7 0.248 3.441 3.286 2.7 0.16 
6.299999 1.5 5.5 0.36 2.9 0.25 0.008 0.444 2.552999 
1.4 6.33 1.929999 0 0.4 9.44 7.015 2.89 5.258 
5.064 4.91 3.841 2.087 1.791 1.546 1.121 2.915 2.319 
1.804 1.111 1.37 1.185 23.35 18.38 20.47 19.76 15.75 
15.28 15.19 11.82 11.59 12.1 12.72 12.39 0 0.709 
5.013 0.3 2 4 6 8 6 4.8 0 
0 0 0 0 0 0 0.29 7.19 5.61 
0.01 2.2 9 9 5 0 0 0.78 5.12 
1.67 0.07 1.1 2.1 1.68 7.8 3.5 0 2.775 
1.85 2.6196 2.8231 4.884 2.7343 3.552 4.736 6.105 4.255 
5.449925 2.127477 0.957039 2.171908 2.415295 0.853809 0 0.001 0.02 
0 0 0.3 0.000856 0.00197 0.101 0.0585 0.042 0.227 
0.452 0.254 4.1 0.0176 2.9 1.38 5.7 3.9 5.66 
0.0387 4.2 0.018 0 0 1.921 3.8 4.2 2.7 
0.248 3.441 3.286 2.7 0.16 6.299999 1.5 5.5 0.36 
2.9 0.25 0.008 0.444 2.552999 1.4 6.33 1.929999 0 
0.4 9.44 7.015 2.89 5.258 5.064 4.91 3.841 2.087 
1.791 1.546 1.121 2.915 2.319 1.804 1.111 1.37 1.185 
23.35 18.38 20.47 19.76 15.75 15.28 15.19 11.82 11.59 
12.1 12.72 12.39 0 0.709 5.013 0.3 2 4 
6 8 6 4.8 0 0 0 0 0 
0 0 0.29 7.19 5.61 0.01 2.2 9 9 
5 0 0 0.78 5.12 1.67 0.07 1.1 2.1 
1.68 7.8 3.5 0 2.775 1.85 2.6196 2.8231 4.884 
2.7343 3.552 4.736 6.105 4.255 5.449925 2.127477 0.957039 2.171908 
2.415295 0.853809 0 0.001 0.02 0 0 0.3 0.000856 
0.00197 0.101 0.0585 0.042 0.227 0.452 0.254 4.1 0.0176 
2.9 1.38 5.7 3.9 5.66 0.0387 4.2 0.018 0 
0 1.921 3.8 4.2 2.7 0.248 3.441 3.286 2.7 
0.16 6.299999 1.5 5.5 0.36 2.9 0.25 0.008 0.444 
2.552999 1.4 6.33 1.929999 0 0.4 9.44 7.015 2.89 
5.258 5.064 4.91 3.841 2.087 1.791 1.546 1.121 2.915 
2.319 1.804 1.111 1.37 1.185 23.35 18.38 20.47 19.76 
15.75 15.28 15.19 11.82 11.59 12.1 12.72 12.39 0 
0.709 5.013 0.3 2 4 6 8 6 4.8 
0 0 0 0 0 0 0 0.29 7.19 
5.61 0.01 2.2 9 9 5 0 0 0.78 
5.12 1.67 0.07 1.1 2.1 1.68 7.8 3.5 0 
2.775 1.85 2.6196 2.8231 4.884 2.7343 3.552 4.736 6.105 
4.255 5.449925 2.127477 0.957039 2.171908 2.415295 0.853809 0 0.001 
0.02 0 0 0.3 0.000856 0.00197 0.101 0.0585 0.042 
0.227 0.452 0.254 4.1 0.0176 2.9 1.38 5.7 3.9 
5.66 0.0387 4.2 0.018 0 0 1.921 3.8 4.2 
2.7 0.248 3.441 3.286 2.7 0.16 6.299999 1.5 5.5 
0.36 2.9 0.25 0.008 0.444 2.552999 1.4 6.33 1.929999 
0 0.4 9.44 7.015 2.89 5.258 5.064 4.91 3.841 
2.087 1.791 1.546 1.121 2.915 2.319 1.804 1.111 1.37 
1.185 23.35 18.38 20.47 19.76 15.75 15.28 15.19 11.82 
11.59 12.1 12.72 12.39 0 0.709 5.013 0.3 2 
4 6 8 6 4.8 0 0 0 0 
0 0 0 0.29 7.19 5.61 0.01 2.2 9 
9 5 0 0 0.78 5.12 1.67 0.07 1.1 
2.1 1.68 7.8 3.5 0 2.775 1.85 2.6196 2.8231 
4.884 2.7343 3.552 4.736 6.105 4.255 5.449925 2.127477 0.957039 
2.171908 2.415295 0.853809 0 0.001 0.02 0 0 0.3 
0.000856 0.00197 0.101 0.0585 0.042 0.227 0.452 0.254 4.1 
0.0176 2.9 1.38 5.7 3.9 5.66 0.0387 4.2 0.018 
0 0 1.921 3.8 4.2 2.7 0.248 3.441 3.286 
2.7 0.16 6.299999 1.5 5.5 0.36 2.9 0.25 0.008 
0.444 2.552999 1.4 6.33 1.929999 0 0.4 9.44 7.015 
2.89 5.258 5.064 4.91 3.841 2.087 1.791 1.546 1.121 
2.915 2.319 1.804 1.111 1.37 1.185 23.35 18.38 20.47 
19.76 15.75 15.28 15.19 11.82 11.59 12.1 12.72 12.39 
0 0.709 5.013 0.3 2 4 6 8 6 
4.8 0 0 0 0 0 0 0 0.29 
7.19 5.61 0.01 2.2 9 9 5 0 0 
0.78 5.12 1.67 0.07 1.1 2.1 1.68 7.8 3.5 
0 2.775 1.85 2.6196 2.8231 4.884 2.7343 3.552 4.736 
6.105 4.255 5.449925 2.127477 0.957039 2.171908 2.415295 0.853809 0 
0.001 0.02 0 0 0.3 0.000856 0.00197 0.101 0.0585 
0.042 0.227 0.452 0.254 4.1 0.0176 2.9 1.38 5.7 
3.9 5.66 0.0387 4.2 0.018 0 0 1.921 3.8 
4.2 2.7 0.248 3.441 3.286 2.7 0.16 6.299999 1.5 
5.5 0.36 2.9 0.25 0.008 0.444 2.552999 1.4 6.33 
1.929999 0 0.4 9.44 7.015 2.89 5.258 5.064 4.91 
3.841 2.087 1.791 1.546 1.121 2.915 2.319 1.804 1.111 
1.37 1.185 23.35 18.38 20.47 19.76 15.75 15.28 15.19 
11.82 11.59 12.1 12.72 12.39 0 0.709 5.013 0.3 
2 4 6 8 6 4.8 0 0 0 
0 0 0 0 0.29 7.19 5.61 0.01 2.2 
9 9 5 0 0 0.78 5.12 1.67 0.07 
1.1 2.1 1.68 7.8 3.5 0 2.775 1.85 2.6196 
2.8231 4.884 2.7343 3.552 4.736 6.105 4.255 5.449925 2.127477 
0.957039 2.171908 2.415295 0.853809 0 0.001 0.02 0 0 
0.3 0.000856 0.00197 0.101 0.0585 0.042 0.227 0.452 0.254 
4.1 
FIELD FieldData 2
CS134 1 1441 double
0 0 0 2.1 1.4 2.257 0 0.62 0 
3.3 2.9 0 1.1 1.1 0.53 0 0.925 0 
0 0 0.18 0.36 1.599999 0.07 0.76 0 0 
0.0925 0.407 0.11 1.809999 0.77 0.6 0.1 3.099999 0.904 
0.26 1.259 1.37 1.285 1.037 0.537 0.444 0.704 0.556 
0.763 0.604 0.507 0.27 0.35 0.369 0 0 0 
0 0 0 0 0 0 0 0 0 
0.615 0.107 0.63 0.06 0.5 0.7 0.9 1 1 
0.8 2.1 2.3 2.9 3.2 1.7 1.7 2.5 0.05 
1.2 0.94 0 0 1.43 0 0 3.3 1.7 
0.2 1.3 0.39 0.016 0.26 0.36 0.41 1.91 0.98 
0.0054 0.536 0.296 0.5698 0.4847 1.8315 0.50875 1.0582 1.3024 
0.814 1.221 1.676475 0.600894 0.159666 0.429893 0.546652 0.216814 0.0282 
0 0 0 0 0 0.000519 0.00022 0.000571 0.000807 
0.000491 0.00755 0.129 0.046 0.8 0 0 0 2.1 
1.4 2.257 0 0.62 0 3.3 2.9 0 1.1 
1.1 0.53 0 0.925 0 0 0 0.18 0.36 
1.599999 0.07 0.76 0 0 0.0925 0.407 0.11 1.809999 
0.77 0.6 0.1 3.099999 0.904 0.26 1.259 1.37 1.285 
1.037 0.537 0.444 0.704 0.556 0.763 0.604 0.507 0.27 
0.35 0.369 0 0 0 0 0 0 0 
0 0 0 0 0 0.615 0.107 0.63 0.06 
0.5 0.7 0.9 1 1 0.8 2.1 2.3 2.9 
3.2 1.7 1.7 2.5 0.05 1.2 0.94 0 0 
1.43 0 0 3.3 1.7 0.2 1.3 0.39 0.016 
0.26 0.36 0.41 1.91 0.98 0.0054 0.536 0.296 0.5698 
0.4847 1.8315 0.50875 1.0582 1.3024 0.814 1.221 1.676475 0.600894 
0.159666 0.429893 0.546652 0.216814 0.0282 0 0 0 0 
0 0.000519 0.00022 0.000571 0.000807 0.000491 0.00755 0.129 0.046 
0.8 0 0 0 2.1 1.4 2.257 0 0.62 
0 3.3 2.9 0 1.1 1.1 0.53 0 0.925 
0 0 0 0.18 0.36 1.599999 0.07 0.76 0 
0 0.0925 0.407 0.11 1.809999 0.77 0.6 0.1 3.099999 
0.904 0.26 1.259 1.37 1.285 1.037 0.537 0.444 0.704 
0.556 0.763 0.604 0.507 0.27 0.35 0.369 0 0 
0 0 0 0 0 0 0 0 0 
0 0.615 0.107 0.63 0.06 0.5 0.7 0.9 1 
1 0.8 2.1 2.3 2.9 3.2 1.7 1.7 2.5 
0.05 1.2 0.94 0 0 1.43 0 0 3.3 
1.7 0.2 1.3 0.39 0.016 0.26 0.36 0.41 1.91 
0.98 0.0054 0.536 0.296 0.5698 0.4847 1.8315 0.50875 1.0582 
1.3024 0.814 1.221 1.676475 0.600894 0.159666 0.429893 0.546652 0.216814 
0.0282 0 0 0 0 0 0.000519 0.00022 0.000571 
0.000807 0.000491 0.00755 0.129 0.046 0.8 0 0 0 
2.1 1.4 2.257 0 0.62 0 3.3 2.9 0 
1.1 1.1 0.53 0 0.925 0 0 0 0.18 
0.36 1.599999 0.07 0.76 0 0 0.0925 0.407 0.11 
1.809999 0.77 0.6 0.1 3.099999 0.904 0.26 1.259 1.37 
1.285 1.037 0.537 0.444 0.704 0.556 0.763 0.604 0.507 
0.27 0.35 0.369 0 0 0 0 0 0 
0 0 0 0 0 0 0.615 0.107 0.63 
0.06 0.5 0.7 0.9 1 1 0.8 2.1 2.3 
2.9 3.2 1.7 1.7 2.5 0.05 1.2 0.94 0 
0 1.43 0 0 3.3 1.7 0.2 1.3 0.39 
0.016 0.26 0.36 0.41 1.91 0.98 0.0054 0.536 0.296 
0.5698 0.4847 1.8315 0.50875 1.0582 1.3024 0.814 1.221 1.676475 
0.600894 0.159666 0.429893 0.546652 0.216814 0.0282 0 0 0 
0 0 0.000519 0.00022 0.000571 0.000807 0.000491 0.00755 0.129 
0.046 0.8 0 0 0 2.1 1.4 2.257 0 
0.62 0 3.3 2.9 0 1.1 1.1 0.53 0 
0.925 0 0 0 0.18 0.36 1.599999 0.07 0.76 
0 0 0.0925 0.407 0.11 1.809999 0.77 0.6 0.1 
3.099999 0.904 0.26 1.259 1.37 1.285 1.037 0.537 0.444 
0.704 0.556 0.763 0.604 0.507 0.27 0.35 0.369 0 
0 0 0 0 0 0 0 0 0 
0 0 0.615 0.107 0.63 0.06 0.5 0.7 0.9 
1 1 0.8 2.1 2.3 2.9 3.2 1.7 1.7 
2.5 0.05 1.2 0.94 0 0 1.43 0 0 
3.3 1.7 0.2 1.3 0.39 0.016 0.26 0.36 0.41 
1.91 0.98 0.0054 0.536 0.296 0.5698 0.4847 1.8315 0.50875 
1.0582 1.3024 0.814 1.221 1.676475 0.600894 0.159666 0.429893 0.546652 
0.216814 0.0282 0 0 0 0 0 0.000519 0.00022 
0.000571 0.000807 0.000491 0.00755 0.129 0.046 0.8 0 0 
0 2.1 1.4 2.257 0 0.62 0 3.3 2.9 
0 1.1 1.1 0.53 0 0.925 0 0 0 
0.18 0.36 1.599999 0.07 0.76 0 0 0.0925 0.407 
0.11 1.809999 0.77 0.6 0.1 3.099999 0.904 0.26 1.259 
1.37 1.285 1.037 0.537 0.444 0.704 0.556 0.763 0.604 
0.507 0.27 0.35 0.369 0 0 0 0 0 
0 0 0 0 0 0 0 0.615 0.107 
0.63 0.06 0.5 0.7 0.9 1 1 0.8 2.1 
2.3 2.9 3.2 1.7 1.7 2.5 0.05 1.2 0.94 
0 0 1.43 0 0 3.3 1.7 0.2 1.3 
0.39 0.016 0.26 0.36 0.41 1.91 0.98 0.0054 0.536 
0.296 0.5698 0.4847 1.8315 0.50875 1.0582 1.3024 0.814 1.221 
1.676475 0.600894 0.159666 0.429893 0.546652 0.216814 0.0282 0 0 
0 0 0 0.000519 0.00022 0.000571 0.000807 0.000491 0.00755 
0.129 0.046 0.8 0 0 0 2.1 1.4 2.257 
0 0.62 0 3.3 2.9 0 1.1 1.1 0.53 
0 0.925 0 0 0 0.18 0.36 1.599999 0.07 
0.76 0 0 0.0925 0.407 0.11 1.809999 0.77 0.6 
0.1 3.099999 0.904 0.26 1.259 1.37 1.285 1.037 0.537 
0.444 0.704 0.556 0.763 0.604 0.507 0.27 0.35 0.369 
0 0 0 0 0 0 0 0 0 
0 0 0 0.615 0.107 0.63 0.06 0.5 0.7 
0.9 1 1 0.8 2.1 2.3 2.9 3.2 1.7 
1.7 2.5 0.05 1.2 0.94 0 0 1.43 0 
0 3.3 1.7 0.2 1.3 0.39 0.016 0.26 0.36 
0.41 1.91 0.98 0.0054 0.536 0.296 0.5698 0.4847 1.8315 
0.50875 1.0582 1.3024 0.814 1.221 1.676475 0.600894 0.159666 0.429893 
0.546652 0.216814 0.0282 0 0 0 0 0 0.000519 
0.00022 0.000571 0.000807 0.000491 0.00755 0.129 0.046 0.8 0 
0 0 2.1 1.4 2.257 0 0.62 0 3.3 
2.9 0 1.1 1.1 0.53 0 0.925 0 0 
0 0.18 0.36 1.599999 0.07 0.76 0 0 0.0925 
0.407 0.11 1.809999 0.77 0.6 0.1 3.099999 0.904 0.26 
1.259 1.37 1.285 1.037 0.537 0.444 0.704 0.556 0.763 
0.604 0.507 0.27 0.35 0.369 0 0 0 0 
0 0 0 0 0 0 0 0 0.615 
0.107 0.63 0.06 0.5 0.7 0.9 1 1 0.8 
2.1 2.3 2.9 3.2 1.7 1.7 2.5 0.05 1.2 
0.94 0 0 1.43 0 0 3.3 1.7 0.2 
1.3 0.39 0.016 0.26 0.36 0.41 1.91 0.98 0.0054 
0.536 0.296 0.5698 0.4847 1.8315 0.50875 1.0582 1.3024 0.814 
1.221 1.676475 0.600894 0.159666 0.429893 0.546652 0.216814 0.0282 0 
0 0 0 0 0.000519 0.00022 0.000571 0.000807 0.000491 
0.00755 0.129 0.046 0.8 0 0 0 2.1 1.4 
2.257 0 0.62 0 3.3 2.9 0 1.1 1.1 
0.53 0 0.925 0 0 0 0.18 0.36 1.599999 
0.07 0.76 0 0 0.0925 0.407 0.11 1.809999 0.77 
0.6 0.1 3.099999 0.904 0.26 1.259 1.37 1.285 1.037 
0.537 0.444 0.704 0.556 0.763 0.604 0.507 0.27 0.35 
0.369 0 0 0 0 0 0 0 0 
0 0 0 0 0.615 0.107 0.63 0.06 0.5 
0.7 0.9 1 1 0.8 2.1 2.3 2.9 3.2 
1.7 1.7 2.5 0.05 1.2 0.94 0 0 1.43 
0 0 3.3 1.7 0.2 1.3 0.39 0.016 0.26 
0.36 0.41 1.91 0.98 0.0054 0.536 0.296 0.5698 0.4847 
1.8315 0.50875 1.0582 1.3024 0.814 1.221 1.676475 0.600894 0.159666 
0.429893 0.546652 0.216814 0.0282 0 0 0 0 0 
0.000519 0.00022 0.000571 0.000807 0.000491 0.00755 0.129 0.046 0.8 
0 0 0 2.1 1.4 2.257 0 0.62 0 
3.3 2.9 0 1.1 1.1 0.53 0 0.925 0 
0 0 0.18 0.36 1.599999 0.07 0.76 0 0 
0.0925 0.407 0.11 1.809999 0.77 0.6 0.1 3.099999 0.904 
0.26 1.259 1.37 1.285 1.037 0.537 0.444 0.704 0.556 
0.763 0.604 0.507 0.27 0.35 0.369 0 0 0 
0 0 0 0 0 0 0 0 0 
0.615 0.107 0.63 0.06 0.5 0.7 0.9 1 1 
0.8 2.1 2.3 2.9 3.2 1.7 1.7 2.5 0.05 
1.2 0.94 0 0 1.43 0 0 3.3 1.7 
0.2 1.3 0.39 0.016 0.26 0.36 0.41 1.91 0.98 
0.0054 0.536 0.296 0.5698 0.4847 1.8315 0.50875 1.0582 1.3024 
0.814 1.221 1.676475 0.600894 0.159666 0.429893 0.546652 0.216814 0.0282 
0 0 0 0 0 0.000519 0.00022 0.000571 0.000807 
0.000491 0.00755 0.129 0.046 0.8 0 0 0 2.1 
1.4 2.257 0 0.62 0 3.3 2.9 0 1.1 
1.1 0.53 0 0.925 0 0 0 0.18 0.36 
1.599999 0.07 0.76 0 0 0.0925 0.407 0.11 1.809999 
0.77 0.6 0.1 3.099999 0.904 0.26 1.259 1.37 1.285 
1.037 0.537 0.444 0.704 0.556 0.763 0.604 0.507 0.27 
0.35 0.369 0 0 0 0 0 0 0 
0 0 0 0 0 0.615 0.107 0.63 0.06 
0.5 0.7 0.9 1 1 0.8 2.1 2.3 2.9 
3.2 1.7 1.7 2.5 0.05 1.2 0.94 0 0 
1.43 0 0 3.3 1.7 0.2 1.3 0.39 0.016 
0.26 0.36 0.41 1.91 0.98 0.0054 0.536 0.296 0.5698 
0.4847 1.8315 0.50875 1.0582 1.3024 0.814 1.221 1.676475 0.600894 
0.159666 0.429893 0.546652 0.216814 0.0282 0 0 0 0 
0 0.000519 0.00022 0.000571 0.000807 0.000491 0.00755 0.129 0.046 
0.8 
CS137 1 1441 double
0.00022 2.17 0.55 0.89 0.53 0.008 0.0049 1.3 0 
5.9 5.2 1.064 2.1 2.1 0.96 0.089 1.443 2.434 
1.76 0.05 0.41 0.65 3 0.095 1.5 0 0 
0.1628 0.999 0.18 3.23 1.49 1.4 0.17 5.4 2.237 
0.5 2.444 2.556 2.333 1.852 1 0.889 1.37 1.111 
1.593 1.1 0.881 0.626 0.726 0.781 2.49 1.97 2.21 
2.15 1.73 1.69 1.69 1.32 1.37 1.37 1.46 1.43 
1.5 0.211 1.296 0.15 1 1.6 2 3 2.4 
2.3 2.6 3.8 5 4.8 3.7 2.6 3.8 0.11 
3.15 2.15 0 0.9 3.1 2.8 1.2 4.8 4 
0.46 3.07 0.98 0.03 0.48 0.66 0.97 3.6 1.88 
0.0351 1.147 0.629 1.0286 0.9583 3.367 0.8584 1.924 2.294 
1.591 2.257 2.793201 0.932911 0.267519 0.757628 0.773646 0.33532 0.049 
0.0002 0.0007 0.0085 0.003 0.11 0.000984 0.000307 0.000928 0.00109 
0.00083 0.0128 0.211 0.073 1.4 0.00022 2.17 0.55 0.89 
0.53 0.008 0.0049 1.3 0 5.9 5.2 1.064 2.1 
2.1 0.96 0.089 1.443 2.434 1.76 0.05 0.41 0.65 
3 0.095 1.5 0 0 0.1628 0.999 0.18 3.23 
1.49 1.4 0.17 5.4 2.237 0.5 2.444 2.556 2.333 
1.852 1 0.889 1.37 1.111 1.593 1.1 0.881 0.626 
0.726 0.781 2.49 1.97 2.21 2.15 1.73 1.69 1.69 
1.32 1.37 1.37 1.46 1.43 1.5 0.211 1.296 0.15 
1 1.6 2 3 2.4 2.3 2.6 3.8 5 
4.8 3.7 2.6 3.8 0.11 3.15 2.15 0 0.9 
3.1 2.8 1.2 4.8 4 0.46 3.07 0.98 0.03 
0.48 0.66 0.97 3.6 1.88 0.0351 1.147 0.629 1.0286 
0.9583 3.367 0.8584 1.924 2.294 1.591 2.257 2.793201 0.932911 
0.267519 0.757628 0.773646 0.33532 0.049 0.0002 0.0007 0.0085 0.003 
0.11 0.000984 0.000307 0.000928 0.00109 0.00083 0.0128 0.211 0.073 
1.4 0.00022 2.17 0.55 0.89 0.53 0.008 0.0049 1.3 
0 5.9 5.2 1.064 2.1 2.1 0.96 0.089 1.443 
2.434 1.76 0.05 0.41 0.65 3 0.095 1.5 0 
0 0.1628 0.999 0.18 3.23 1.49 1.4 0.17 5.4 
2.237 0.5 2.444 2.556 2.333 1.852 1 0.889 1.37 
1.111 1.593 1.1 0.881 0.626 0.726 0.781 2.49 1.97 
2.21 2.15 1.73 1.69 1.69 1.32 1.37 1.37 1.46 
1.43 1.5 0.211 1.296 0.15 1 1.6 2 3 
2.4 2.3 2.6 3.8 5 4.8 3.7 2.6 3.8 
0.11 3.15 2.15 0 0.9 3.1 2.8 1.2 4.8 
4 0.46 3.07 0.98 0.03 0.48 0.66 0.97 3.6 
1.88 0.0351 1.147 0.629 1.0286 0.9583 3.367 0.8584 1.924 
2.294 1.591 2.257 2.793201 0.932911 0.267519 0.757628 0.773646 0.33532 
0.049 0.0002 0.0007 0.0085 0.003 0.11 0.000984 0.000307 0.000928 
0.00109 0.00083 0.0128 0.211 0.073 1.4 0.00022 2.17 0.55 
0.89 0.53 0.008 0.0049 1.3 0 5.9 5.2 1.064 
2.1 2.1 0.96 0.089 1.443 2.434 1.76 0.05 0.41 
0.65 3 0.095 1.5 0 0 0.1628 0.999 0.18 
3.23 1.49 1.4 0.17 5.4 2.237 0.5 2.444 2.556 
2.333 1.852 1 0.889 1.37 1.111 1.593 1.1 0.881 
0.626 0.726 0.781 2.49 1.97 2.21 2.15 1.73 1.69 
1.69 1.32 1.37 1.37 1.46 1.43 1.5 0.211 1.296 
0.15 1 1.6 2 3 2.4 2.3 2.6 3.8 
5 4.8 3.7 2.6 3.8 0.11 3.15 2.15 0 
0.9 3.1 2.8 1.2 4.8 4 0.46 3.07 0.98 
0.03 0.48 0.66 0.97 3.6 1.88 0.0351 1.147 0.629 
1.0286 0.9583 3.367 0.8584 1.924 2.294 1.591 2.257 2.793201 
0.932911 0.267519 0.757628 0.773646 0.33532 0.049 0.0002 0.0007 0.0085 
0.003 0.11 0.000984 0.000307 0.000928 0.00109 0.00083 0.0128 0.211 
0.073 1.4 0.00022 2.17 0.55 0.89 0.53 0.008 0.0049 
1.3 0 5.9 5.2 1.064 2.1 2.1 0.96 0.089 
1.443 2.434 1.76 0.05 0.41 0.65 3 0.095 1.5 
0 0 0.1628 0.999 0.18 3.23 1.49 1.4 0.17 
5.4 2.237 0.5 2.444 2.556 2.333 1.852 1 0.889 
1.37 1.111 1.593 1.1 0.881 0.626 0.726 0.781 2.49 
1.97 2.21 2.15 1.73 1.69 1.69 1.32 1.37 1.37 
1.46 1.43 1.5 0.211 1.296 0.15 1 1.6 2 
3 2.4 2.3 2.6 3.8 5 4.8 3.7 2.6 
3.8 0.11 3.15 2.15 0 0.9 3.1 2.8 1.2 
4.8 4 0.46 3.07 0.98 0.03 0.48 0.66 0.97 
3.6 1.88 0.0351 1.147 0.629 1.0286 0.9583 3.367 0.8584 
1.924 2.294 1.591 2.257 2.793201 0.932911 0.267519 0.757628 0.773646 
0.33532 0.049 0.0002 0.0007 0.0085 0.003 0.11 0.000984 0.000307 
0.000928 0.00109 0.00083 0.0128 0.211 0.073 1.4 0.00022 2.17 
0.55 0.89 0.53 0.008 0.0049 1.3 0 5.9 5.2 
1.064 2.1 2.1 0.96 0.089 1.443 2.434 1.76 0.05 
0.41 0.65 3 0.095 1.5 0 0 0.1628 0.999 
0.18 3.23 1.49 1.4 0.17 5.4 2.237 0.5 2.444 
2.556 2.333 1.852 1 0.889 1.37 1.111 1.593 1.1 
0.881 0.626 0.726 0.781 2.49 1.97 2.21 2.15 1.73 
1.69 1.69 1.32 1.37 1.37 1.46 1.43 1.5 0.211 
1.296 0.15 1 1.6 2 3 2.4 2.3 2.6 
3.8 5 4.8 3.7 2.6 3.8 0.11 3.15 2.15 
0 0.9 3.1 2.8 1.2 4.8 4 0.46 3.07 
0.98 0.03 0.48 0.66 0.97 3.6 1.88 0.0351 1.147 
0.629 1.0286 0.9583 3.367 0.8584 1.924 2.294 1.591 2.257 
2.793201 0.932911 0.267519 0.757628 0.773646 0.33532 0.049 0.0002 0.0007 
0.0085 0.003 0.11 0.000984 0.000307 0.000928 0.00109 0.00083 0.0128 
0.211 0.073 1.4 0.00022 2.17 0.55 0.89 0.53 0.008 
0.0049 1.3 0 5.9 5.2 1.064 2.1 2.1 0.96 
0.089 1.443 2.434 1.76 0.05 0.41 0.65 3 0.095 
1.5 0 0 0.1628 0.999 0.18 3.23 1.49 1.4 
0.17 5.4 2.237 0.5 2.444 2.556 2.333 1.852 1 
0.889 1.37 1.111 1.593 1.1 0.881 0.626 0.726 0.781 
2.49 1.97 2.21 2.15 1.73 1.69 1.69 1.32 1.37 
1.37 1.46 1.43 1.5 0.211 1.296 0.15 1 1.6 
2 3 2.4 2.3 2.6 3.8 5 4.8 3.7 
2.6 3.8 0.11 3.15 2.15 0 0.9 3.1 2.8 
1.2 4.8 4 0.46 3.07 0.98 0.03 0.48 0.66 
0.97 3.6 1.88 0.0351 1.147 0.629 1.0286 0.9583 3.367 
0.8584 1.924 2.294 1.591 2.257 2.793201 0.932911 0.267519 0.757628 
0.773646 0.33532 0.049 0.0002 0.0007 0.0085 0.003 0.11 0.000984 
0.000307 0.000928 0.00109 0.00083 0.0128 0.211 0.073 1.4 0.00022 
2.17 0.55 0.89 0.53 0.008 0.0049 1.3 0 5.9 
5.2 1.064 2.1 2.1 0.96 0.089 1.443 2.434 1.76 
0.05 0.41 0.65 3 0.095 1.5 0 0 0.1628 
0.999 0.18 3.23 1.49 1.4 0.17 5.4 2.237 0.5 
2.444 2.556 2.333 1.852 1 0.889 1.37 1.111 1.593 
1.1 0.881 0.626 0.726 0.781 2.49 1.97 2.21 2.15 
1.73 1.69 1.69 1.32 1.37 1.37 1.46 1.43 1.5 
0.211 1.296 0.15 1 1.6 2 3 2.4 2.3 
2.6 3.8 5 4.8 3.7 2.6 3.8 0.11 3.15 
2.15 0 0.9 3.1 2.8 1.2 4.8 4 0.46 
3.07 0.98 0.03 0.48 0.66 0.97 3.6 1.88 0.0351 