# vtk DataFile Version 5.1
vtk output
ASCII
DATASET POLYDATA
POINTS 1001 double
12.07 55.7 0 10.59 49.3 0 13.42 52.5 0 
12.78 49.2 0 7.87 48 0 9.95 51.53 0 
9.95 51.53 0 9.73 52.38 0 8.67 49 0 
7.65 51.11 0 11.58 48.13 0 7.15 53.71 0 
8.77 50.1 0 11.34 48 0 10.75 52.81 0 
5.75 43.71 0 0.25 47.15 0 4.81 50.1 0 
4.8 44.63 0 7.56 47.91 0 -1.9 49.55 0 
2.31 51 0 5.72 45.18 0 7.42 43.73 0 
2.18 48.68 0 2.36 48.85 0 2.16 48.73 0 
4.73 44.33 0 5.38 49.15 0 11.33 44.48 0 
11.33 44.48 0 12.3 42.03 0 12.3 42.03 0 
12.3 42.03 0 12.3 42.03 0 12.3 42.03 0 
12.3 42.03 0 12.3 42.03 0 12.3 42.03 0 
8.63 45.8 0 8.63 45.8 0 8.63 45.8 0 
8.63 45.8 0 8.63 45.8 0 8.63 45.8 0 
8.63 45.8 0 8.63 45.8 0 8.63 45.8 0 
8.63 45.8 0 8.63 45.8 0 8.63 45.8 0 
8.02 45.21 0 16.63 40.17 0 16.63 40.17 0 
5.18 52.11 0 6.53 53.25 0 22.95 40.59 0 
-2.45 51.69 0 -2.45 51.69 0 -4.83 56 0 
-1.3 51.62 0 5.12 51.18 0 7.12 46.49 0 
7.42 46.42 0 9.78 47.51 0 11.41 47.28 0 
11.41 47.28 0 14.33 46.63 0 14.33 46.63 0 
14.33 46.63 0 14.3 48.31 0 13.05 47.9 0 
24.7 60.45 0 10.66 59.9 0 10.66 59.9 0 
9.8 59.9 0 9.8 59.9 0 9.8 59.9 0 
0 0 0 12 57.75 0 13.92 56.82 0 
13.92 56.82 0 13.92 56.82 0 13.92 56.82 0 
14.67 63.17 0 18.08 59.33 0 18.08 59.33 0 
20.25 63.83 0 48.97 14.43 0 21.25 48.73 0 
19.1 47.5 0 12.07 55.7 0 10.59 49.3 0 
13.42 52.5 0 12.78 49.2 0 7.87 48 0 
9.95 51.53 0 9.95 51.53 0 9.73 52.38 0 
8.67 49 0 7.65 51.11 0 11.58 48.13 0 
7.15 53.71 0 8.77 50.1 0 11.34 48 0 
10.75 52.81 0 5.75 43.71 0 0.25 47.15 0 
4.81 50.1 0 4.8 44.63 0 7.56 47.91 0 
-1.9 49.55 0 2.31 51 0 5.72 45.18 0 
7.42 43.73 0 2.18 48.68 0 2.36 48.85 0 
2.16 48.73 0 4.73 44.33 0 5.38 49.15 0 
11.33 44.48 0 11.33 44.48 0 12.3 42.03 0 
12.3 42.03 0 12.3 42.03 0 12.3 42.03 0 
12.3 42.03 0 12.3 42.03 0 12.3 42.03 0 
12.3 42.03 0 8.63 45.8 0 8.63 45.8 0 
8.63 45.8 0 8.63 45.8 0 8.63 45.8 0 
8.63 45.8 0 8.63 45.8 0 8.63 45.8 0 
8.63 45.8 0 8.63 45.8 0 8.63 45.8 0 
8.63 45.8 0 8.02 45.21 0 16.63 40.17 0 
16.63 40.17 0 5.18 52.11 0 6.53 53.25 0 
22.95 40.59 0 -2.45 51.69 0 -2.45 51.69 0 
-4.83 56 0 -1.3 51.62 0 5.12 51.18 0 
7.12 46.49 0 7.42 46.42 0 9.78 47.51 0 
11.41 47.28 0 11.41 47.28 0 14.33 46.63 0 
14.33 46.63 0 14.33 46.63 0 14.3 48.31 0 
13.05 47.9 0 24.7 60.45 0 10.66 59.9 0 
10.66 59.9 0 9.8 59.9 0 9.8 59.9 0 
9.8 59.9 0 0 0 0 12 57.75 0 
13.92 56.82 0 13.92 56.82 0 13.92 56.82 0 
13.92 56.82 0 14.67 63.17 0 18.08 59.33 0 
18.08 59.33 0 20.25 63.83 0 48.97 14.43 0 
21.25 48.73 0 19.1 47.5 0 12.07 55.7 1 
10.59 49.3 1 13.42 52.5 1 12.78 49.2 1 
7.87 48 1 9.95 51.53 1 9.95 51.53 1 
9.73 52.38 1 8.67 49 1 7.65 51.11 1 
11.58 48.13 1 7.15 53.71 1 8.77 50.1 1 
11.34 48 1 10.75 52.81 1 5.75 43.71 1 
0.25 47.15 1 4.81 50.1 1 4.8 44.63 1 
7.56 47.91 1 -1.9 49.55 1 2.31 51 1 
5.72 45.18 1 7.42 43.73 1 2.18 48.68 1 
2.36 48.85 1 2.16 48.73 1 4.73 44.33 1 
5.38 49.15 1 11.33 44.48 1 11.33 44.48 1 
12.3 42.03 1 12.3 42.03 1 12.3 42.03 1 
12.3 42.03 1 12.3 42.03 1 12.3 42.03 1 
12.3 42.03 1 12.3 42.03 1 8.63 45.8 1 
8.63 45.8 1 8.63 45.8 1 8.63 45.8 1 
8.63 45.8 1 8.63 45.8 1 8.63 45.8 1 
8.63 45.8 1 8.63 45.8 1 8.63 45.8 1 
8.63 45.8 1 8.63 45.8 1 8.02 45.21 1 
16.63 40.17 1 16.63 40.17 1 5.18 52.11 1 
6.53 53.25 1 22.95 40.59 1 -2.45 51.69 1 
-2.45 51.69 1 -4.83 56 1 -1.3 51.62 1 
5.12 51.18 1 7.12 46.49 1 7.42 46.42 1 
9.78 47.51 1 11.41 47.28 1 11.41 47.28 1 
14.33 46.63 1 14.33 46.63 1 14.33 46.63 1 
14.3 48.31 1 13.05 47.9 1 24.7 60.45 1 
10.66 59.9 1 10.66 59.9 1 9.8 59.9 1 
9.8 59.9 1 9.8 59.9 1 0 0 1 
12 57.75 1 13.92 56.82 1 13.92 56.82 1 
13.92 56.82 1 13.92 56.82 1 14.67 63.17 1 
18.08 59.33 1 18.08 59.33 1 20.25 63.83 1 
48.97 14.43 1 21.25 48.73 1 19.1 47.5 1 
12.07 55.7 2 10.59 49.3 2 13.42 52.5 2 
12.78 49.2 2 7.87 48 2 9.95 51.53 2 
9.95 51.53 2 9.73 52.38 2 8.67 49 2 
7.65 51.11 2 11.58 48.13 2 7.15 53.71 2 
8.77 50.1 2 11.34 48 2 10.75 52.81 2 
5.75 43.71 2 0.25 47.15 2 4.81 50.1 2 
4.8 44.63 2 7.56 47.91 2 -1.9 49.55 2 
2.31 51 2 5.72 45.18 2 7.42 43.73 2 
2.18 48.68 2 2.36 48.85 2 2.16 48.73 2 
4.73 44.33 2 5.38 49.15 2 11.33 44.48 2 
11.33 44.48 2 12.3 42.03 2 12.3 42.03 2 
12.3 42.03 2 12.3 42.03 2 12.3 42.03 2 
12.3 42.03 2 12.3 42.03 2 12.3 42.03 2 
8.63 45.8 2 8.63 45.8 2 8.63 45.8 2 
8.63 45.8 2 8.63 45.8 2 8.63 45.8 2 
8.63 45.8 2 8.63 45.8 2 8.63 45.8 2 
8.63 45.8 2 8.63 45.8 2 8.63 45.8 2 
8.02 45.21 2 16.63 40.17 2 16.63 40.17 2 
5.18 52.11 2 6.53 53.25 2 22.95 40.59 2 
-2.45 51.69 2 -2.45 51.69 2 -4.83 56 2 
-1.3 51.62 2 5.12 51.18 2 7.12 46.49 2 
7.42 46.42 2 9.78 47.51 2 11.41 47.28 2 
11.41 47.28 2 14.33 46.63 2 14.33 46.63 2 
14.33 46.63 2 14.3 48.31 2 13.05 47.9 2 
24.7 60.45 2 10.66 59.9 2 10.66 59.9 2 
9.8 59.9 2 9.8 59.9 2 9.8 59.9 2 
0 0 2 12 57.75 2 13.92 56.82 2 
13.92 56.82 2 13.92 56.82 2 13.92 56.82 2 
14.67 63.17 2 18.08 59.33 2 18.08 59.33 2 
20.25 63.83 2 48.97 14.43 2 21.25 48.73 2 
19.1 47.5 2 12.07 55.7 3 10.59 49.3 3 
13.42 52.5 3 12.78 49.2 3 7.87 48 3 
9.95 51.53 3 9.95 51.53 3 9.73 52.38 3 
8.67 49 3 7.65 51.11 3 11.58 48.13 3 
7.15 53.71 3 8.77 50.1 3 11.34 48 3 
10.75 52.81 3 5.75 43.71 3 0.25 47.15 3 
4.81 50.1 3 4.8 44.63 3 7.56 47.91 3 
-1.9 49.55 3 2.31 51 3 5.72 45.18 3 
7.42 43.73 3 2.18 48.68 3 2.36 48.85 3 
2.16 48.73 3 4.73 44.33 3 5.38 49.15 3 
11.33 44.48 3 11.33 44.48 3 12.3 42.03 3 
12.3 42.03 3 12.3 42.03 3 12.3 42.03 3 
12.3 42.03 3 12.3 42.03 3 12.3 42.03 3 
12.3 42.03 3 8.63 45.8 3 8.63 45.8 3 
8.63 45.8 3 8.63 45.8 3 8.63 45.8 3 
8.63 45.8 3 8.63 45.8 3 8.63 45.8 3 
8.63 45.8 3 8.63 45.8 3 8.63 45.8 3 
8.63 45.8 3 8.02 45.21 3 16.63 40.17 3 
16.63 40.17 3 5.18 52.11 3 6.53 53.25 3 
22.95 40.59 3 -2.45 51.69 3 -2.45 51.69 3 
-4.83 56 3 -1.3 51.62 3 5.12 51.18 3 
7.12 46.49 3 7.42 46.42 3 9.78 47.51 3 
11.41 47.28 3 11.41 47.28 3 14.33 46.63 3 
14.33 46.63 3 14.33 46.63 3 14.3 48.31 3 
13.05 47.9 3 24.7 60.45 3 10.66 59.9 3 
10.66 59.9 3 9.8 59.9 3 9.8 59.9 3 
9.8 59.9 3 0 0 3 12 57.75 3 
13.92 56.82 3 13.92 56.82 3 13.92 56.82 3 
13.92 56.82 3 14.67 63.17 3 18.08 59.33 3 
18.08 59.33 3 20.25 63.83 3 48.97 14.43 3 
21.25 48.73 3 19.1 47.5 3 12.07 55.7 4 
10.59 49.3 4 13.42 52.5 4 12.78 49.2 4 
7.87 48 4 9.95 51.53 4 9.95 51.53 4 
9.73 52.38 4 8.67 49 4 7.65 51.11 4 
11.58 48.13 4 7.15 53.71 4 8.77 50.1 4 
11.34 48 4 10.75 52.81 4 5.75 43.71 4 
0.25 47.15 4 4.81 50.1 4 4.8 44.63 4 
7.56 47.91 4 -1.9 49.55 4 2.31 51 4 
5.72 45.18 4 7.42 43.73 4 2.18 48.68 4 
2.36 48.85 4 2.16 48.73 4 4.73 44.33 4 
5.38 49.15 4 11.33 44.48 4 11.33 44.48 4 
12.3 42.03 4 12.3 42.03 4 12.3 42.03 4 
12.3 42.03 4 12.3 42.03 4 12.3 42.03 4 
12.3 42.03 4 12.3 42.03 4 8.63 45.8 4 
8.63 45.8 4 8.63 45.8 4 8.63 45.8 4 
8.63 45.8 4 8.63 45.8 4 8.63 45.8 4 
8.63 45.8 4 8.63 45.8 4 8.63 45.8 4 
8.63 45.8 4 8.63 45.8 4 8.02 45.21 4 
16.63 40.17 4 16.63 40.17 4 5.18 52.11 4 
6.53 53.25 4 22.95 40.59 4 -2.45 51.69 4 
-2.45 51.69 4 -4.83 56 4 -1.3 51.62 4 
5.12 51.18 4 7.12 46.49 4 7.42 46.42 4 
9.78 47.51 4 11.41 47.28 4 11.41 47.28 4 
14.33 46.63 4 14.33 46.63 4 14.33 46.63 4 
14.3 48.31 4 13.05 47.9 4 24.7 60.45 4 
10.66 59.9 4 10.66 59.9 4 9.8 59.9 4 
9.8 59.9 4 9.8 59.9 4 0 0 4 
12 57.75 4 13.92 56.82 4 13.92 56.82 4 
13.92 56.82 4 13.92 56.82 4 14.67 63.17 4 
18.08 59.33 4 18.08 59.33 4 20.25 63.83 4 
48.97 14.43 4 21.25 48.73 4 19.1 47.5 4 
12.07 55.7 5 10.59 49.3 5 13.42 52.5 5 
12.78 49.2 5 7.87 48 5 9.95 51.53 5 
9.95 51.53 5 9.73 52.38 5 8.67 49 5 
7.65 51.11 5 11.58 48.13 5 7.15 53.71 5 
8.77 50.1 5 11.34 48 5 10.75 52.81 5 
5.75 43.71 5 0.25 47.15 5 4.81 50.1 5 
4.8 44.63 5 7.56 47.91 5 -1.9 49.55 5 
2.31 51 5 5.72 45.18 5 7.42 43.73 5 
2.18 48.68 5 2.36 48.85 5 2.16 48.73 5 
4.73 44.33 5 5.38 49.15 5 11.33 44.48 5 
11.33 44.48 5 12.3 42.03 5 12.3 42.03 5 
12.3 42.03 5 12.3 42.03 5 12.3 42.03 5 
12.3 42.03 5 12.3 42.03 5 12.3 42.03 5 
8.63 45.8 5 8.63 45.8 5 8.63 45.8 5 
8.63 45.8 5 8.63 45.8 5 8.63 45.8 5 
8.63 45.8 5 8.63 45.8 5 8.63 45.8 5 
8.63 45.8 5 8.63 45.8 5 8.63 45.8 5 
8.02 45.21 5 16.63 40.17 5 16.63 40.17 5 
5.18 52.11 5 6.53 53.25 5 22.95 40.59 5 
-2.45 51.69 5 -2.45 51.69 5 -4.83 56 5 
-1.3 51.62 5 5.12 51.18 5 7.12 46.49 5 
7.42 46.42 5 9.78 47.51 5 11.41 47.28 5 
11.41 47.28 5 14.33 46.63 5 14.33 46.63 5 
14.33 46.63 5 14.3 48.31 5 13.05 47.9 5 
24.7 60.45 5 10.66 59.9 5 10.66 59.9 5 
9.8 59.9 5 9.8 59.9 5 9.8 59.9 5 
0 0 5 12 57.75 5 13.92 56.82 5 
13.92 56.82 5 13.92 56.82 5 13.92 56.82 5 
14.67 63.17 5 18.08 59.33 5 18.08 59.33 5 
20.25 63.83 5 48.97 14.43 5 21.25 48.73 5 
19.1 47.5 5 12.07 55.7 6 10.59 49.3 6 
13.42 52.5 6 12.78 49.2 6 7.87 48 6 
9.95 51.53 6 9.95 51.53 6 9.73 52.38 6 
8.67 49 6 7.65 51.11 6 11.58 48.13 6 
7.15 53.71 6 8.77 50.1 6 11.34 48 6 
10.75 52.81 6 5.75 43.71 6 0.25 47.15 6 
4.81 50.1 6 4.8 44.63 6 7.56 47.91 6 
-1.9 49.55 6 2.31 51 6 5.72 45.18 6 
7.42 43.73 6 2.18 48.68 6 2.36 48.85 6 
2.16 48.73 6 4.73 44.33 6 5.38 49.15 6 
11.33 44.48 6 11.33 44.48 6 12.3 42.03 6 
12.3 42.03 6 12.3 42.03 6 12.3 42.03 6 
12.3 42.03 6 12.3 42.03 6 12.3 42.03 6 
12.3 42.03 6 8.63 45.8 6 8.63 45.8 6 
8.63 45.8 6 8.63 45.8 6 8.63 45.8 6 
8.63 45.8 6 8.63 45.8 6 8.63 45.8 6 
8.63 45.8 6 8.63 45.8 6 8.63 45.8 6 
8.63 45.8 6 8.02 45.21 6 16.63 40.17 6 
16.63 40.17 6 5.18 52.11 6 6.53 53.25 6 
22.95 40.59 6 -2.45 51.69 6 -2.45 51.69 6 
-4.83 56 6 -1.3 51.62 6 5.12 51.18 6 
7.12 46.49 6 7.42 46.42 6 9.78 47.51 6 
11.41 47.28 6 11.41 47.28 6 14.33 46.63 6 
14.33 46.63 6 14.33 46.63 6 14.3 48.31 6 
13.05 47.9 6 24.7 60.45 6 10.66 59.9 6 
10.66 59.9 6 9.8 59.9 6 9.8 59.9 6 
9.8 59.9 6 0 0 6 12 57.75 6 
13.92 56.82 6 13.92 56.82 6 13.92 56.82 6 
13.92 56.82 6 14.67 63.17 6 18.08 59.33 6 
18.08 59.33 6 20.25 63.83 6 48.97 14.43 6 
21.25 48.73 6 19.1 47.5 6 12.07 55.7 7 
10.59 49.3 7 13.42 52.5 7 12.78 49.2 7 
7.87 48 7 9.95 51.53 7 9.95 51.53 7 
9.73 52.38 7 8.67 49 7 7.65 51.11 7 
11.58 48.13 7 7.15 53.71 7 8.77 50.1 7 
11.34 48 7 10.75 52.81 7 5.75 43.71 7 
0.25 47.15 7 4.81 50.1 7 4.8 44.63 7 
7.56 47.91 7 -1.9 49.55 7 2.31 51 7 
5.72 45.18 7 7.42 43.73 7 2.18 48.68 7 
2.36 48.85 7 2.16 48.73 7 4.73 44.33 7 
[...]
POINT_DATA 1001
SCALARS I131 double
LOOKUP_TABLE default
0.496 0.038 0.728 0.5 0.089 0.3 0.082 0.192 0 
0.222 0.36 0.028 0.13 0.31 0.3 0.025 0.015 0.057 
0.016 0.12 0.0043 0.0205 0.02516 0.32 0.0062 0.009 0 
0.014 0.039 0.956 0.429 0.414 0.301 0.487 0.255 0.263 
0.173 0.23 0.152 5.08 3.44 3.11 2.78 2.21 1.85 
1.36 1.48 1.11 0.94 0.94 0.75 0 0.651 0.531 
0.04 0.03 9.5 0.009 0.017 0.004 0.0046 0.051 0.13 
0.1902 0.666 7.252 1.295 0.23051 0.6771 1.3024 0.88981 0.535393 
0 0.2 0.2 0 0 0 0.2 0.206 0.122 
0.153 0.558 1.71 0.161 0.216 0.138 0.0489 1.14 2.57 
3.7 0.496 0.038 0.728 0.5 0.089 0.3 0.082 0.192 
0 0.222 0.36 0.028 0.13 0.31 0.3 0.025 0.015 
0.057 0.016 0.12 0.0043 0.0205 0.02516 0.32 0.0062 0.009 
0 0.014 0.039 0.956 0.429 0.414 0.301 0.487 0.255 
0.263 0.173 0.23 0.152 5.08 3.44 3.11 2.78 2.21 
1.85 1.36 1.48 1.11 0.94 0.94 0.75 0 0.651 
0.531 0.04 0.03 9.5 0.009 0.017 0.004 0.0046 0.051 
0.13 0.1902 0.666 7.252 1.295 0.23051 0.6771 1.3024 0.88981 
0.535393 0 0.2 0.2 0 0 0 0.2 0.206 
0.122 0.153 0.558 1.71 0.161 0.216 0.138 0.0489 1.14 
2.57 3.7 0.496 0.038 0.728 0.5 0.089 0.3 0.082 
0.192 0 0.222 0.36 0.028 0.13 0.31 0.3 0.025 
0.015 0.057 0.016 0.12 0.0043 0.0205 0.02516 0.32 0.0062 
0.009 0 0.014 0.039 0.956 0.429 0.414 0.301 0.487 
0.255 0.263 0.173 0.23 0.152 5.08 3.44 3.11 2.78 
2.21 1.85 1.36 1.48 1.11 0.94 0.94 0.75 0 
0.651 0.531 0.04 0.03 9.5 0.009 0.017 0.004 0.0046 
0.051 0.13 0.1902 0.666 7.252 1.295 0.23051 0.6771 1.3024 
0.88981 0.535393 0 0.2 0.2 0 0 0 0.2 
0.206 0.122 0.153 0.558 1.71 0.161 0.216 0.138 0.0489 
1.14 2.57 3.7 0.496 0.038 0.728 0.5 0.089 0.3 
0.082 0.192 0 0.222 0.36 0.028 0.13 0.31 0.3 
0.025 0.015 0.057 0.016 0.12 0.0043 0.0205 0.02516 0.32 
0.0062 0.009 0 0.014 0.039 0.956 0.429 0.414 0.301 
0.487 0.255 0.263 0.173 0.23 0.152 5.08 3.44 3.11 
2.78 2.21 1.85 1.36 1.48 1.11 0.94 0.94 0.75 
0 0.651 0.531 0.04 0.03 9.5 0.009 0.017 0.004 
0.0046 0.051 0.13 0.1902 0.666 7.252 1.295 0.23051 0.6771 
1.3024 0.88981 0.535393 0 0.2 0.2 0 0 0 
0.2 0.206 0.122 0.153 0.558 1.71 0.161 0.216 0.138 
0.0489 1.14 2.57 3.7 0.496 0.038 0.728 0.5 0.089 
0.3 0.082 0.192 0 0.222 0.36 0.028 0.13 0.31 
0.3 0.025 0.015 0.057 0.016 0.12 0.0043 0.0205 0.02516 
0.32 0.0062 0.009 0 0.014 0.039 0.956 0.429 0.414 
0.301 0.487 0.255 0.263 0.173 0.23 0.152 5.08 3.44 
3.11 2.78 2.21 1.85 1.36 1.48 1.11 0.94 0.94 
0.75 0 0.651 0.531 0.04 0.03 9.5 0.009 0.017 
0.004 0.0046 0.051 0.13 0.1902 0.666 7.252 1.295 0.23051 
0.6771 1.3024 0.88981 0.535393 0 0.2 0.2 0 0 
0 0.2 0.206 0.122 0.153 0.558 1.71 0.161 0.216 
0.138 0.0489 1.14 2.57 3.7 0.496 0.038 0.728 0.5 
0.089 0.3 0.082 0.192 0 0.222 0.36 0.028 0.13 
0.31 0.3 0.025 0.015 0.057 0.016 0.12 0.0043 0.0205 
0.02516 0.32 0.0062 0.009 0 0.014 0.039 0.956 0.429 
0.414 0.301 0.487 0.255 0.263 0.173 0.23 0.152 5.08 
3.44 3.11 2.78 2.21 1.85 1.36 1.48 1.11 0.94 
0.94 0.75 0 0.651 0.531 0.04 0.03 9.5 0.009 
0.017 0.004 0.0046 0.051 0.13 0.1902 0.666 7.252 1.295 
0.23051 0.6771 1.3024 0.88981 0.535393 0 0.2 0.2 0 
0 0 0.2 0.206 0.122 0.153 0.558 1.71 0.161 
0.216 0.138 0.0489 1.14 2.57 3.7 0.496 0.038 0.728 
0.5 0.089 0.3 0.082 0.192 0 0.222 0.36 0.028 
0.13 0.31 0.3 0.025 0.015 0.057 0.016 0.12 0.0043 
0.0205 0.02516 0.32 0.0062 0.009 0 0.014 0.039 0.956 
0.429 0.414 0.301 0.487 0.255 0.263 0.173 0.23 0.152 
5.08 3.44 3.11 2.78 2.21 1.85 1.36 1.48 1.11 
0.94 0.94 0.75 0 0.651 0.531 0.04 0.03 9.5 
0.009 0.017 0.004 0.0046 0.051 0.13 0.1902 0.666 7.252 
1.295 0.23051 0.6771 1.3024 0.88981 0.535393 0 0.2 0.2 
0 0 0 0.2 0.206 0.122 0.153 0.558 1.71 
0.161 0.216 0.138 0.0489 1.14 2.57 3.7 0.496 0.038 
0.728 0.5 0.089 0.3 0.082 0.192 0 0.222 0.36 
0.028 0.13 0.31 0.3 0.025 0.015 0.057 0.016 0.12 
0.0043 0.0205 0.02516 0.32 0.0062 0.009 0 0.014 0.039 
0.956 0.429 0.414 0.301 0.487 0.255 0.263 0.173 0.23 
0.152 5.08 3.44 3.11 2.78 2.21 1.85 1.36 1.48 
1.11 0.94 0.94 0.75 0 0.651 0.531 0.04 0.03 
9.5 0.009 0.017 0.004 0.0046 0.051 0.13 0.1902 0.666 
7.252 1.295 0.23051 0.6771 1.3024 0.88981 0.535393 0 0.2 
0.2 0 0 0 0.2 0.206 0.122 0.153 0.558 
1.71 0.161 0.216 0.138 0.0489 1.14 2.57 3.7 0.496 
0.038 0.728 0.5 0.089 0.3 0.082 0.192 0 0.222 
0.36 0.028 0.13 0.31 0.3 0.025 0.015 0.057 0.016 
0.12 0.0043 0.0205 0.02516 0.32 0.0062 0.009 0 0.014 
0.039 0.956 0.429 0.414 0.301 0.487 0.255 0.263 0.173 
0.23 0.152 5.08 3.44 3.11 2.78 2.21 1.85 1.36 
1.48 1.11 0.94 0.94 0.75 0 0.651 0.531 0.04 
0.03 9.5 0.009 0.017 0.004 0.0046 0.051 0.13 0.1902 
0.666 7.252 1.295 0.23051 0.6771 1.3024 0.88981 0.535393 0 
0.2 0.2 0 0 0 0.2 0.206 0.122 0.153 
0.558 1.71 0.161 0.216 0.138 0.0489 1.14 2.57 3.7 
0.496 0.038 0.728 0.5 0.089 0.3 0.082 0.192 0 
0.222 0.36 0.028 0.13 0.31 0.3 0.025 0.015 0.057 
0.016 0.12 0.0043 0.0205 0.02516 0.32 0.0062 0.009 0 
0.014 0.039 0.956 0.429 0.414 0.301 0.487 0.255 0.263 
0.173 0.23 0.152 5.08 3.44 3.11 2.78 2.21 1.85 
1.36 1.48 1.11 0.94 0.94 0.75 0 0.651 0.531 
0.04 0.03 9.5 0.009 0.017 0.004 0.0046 0.051 0.13 
0.1902 0.666 7.252 1.295 0.23051 0.6771 1.3024 0.88981 0.535393 
0 0.2 0.2 0 0 0 0.2 0.206 0.122 
0.153 0.558 1.71 0.161 0.216 0.138 0.0489 1.14 2.57 
3.7 0.496 0.038 0.728 0.5 0.089 0.3 0.082 0.192 
0 0.222 0.36 0.028 0.13 0.31 0.3 0.025 0.015 
0.057 0.016 0.12 0.0043 0.0205 0.02516 0.32 0.0062 0.009 
0 0.014 0.039 0.956 0.429 0.414 0.301 0.487 0.255 
0.263 0.173 0.23 0.152 5.08 3.44 3.11 2.78 2.21 
1.85 1.36 1.48 1.11 0.94 0.94 0.75 0 0.651 
0.531 0.04 0.03 9.5 0.009 0.017 0.004 0.0046 0.051 
0.13 0.1902 0.666 7.252 1.295 0.23051 0.6771 1.3024 0.88981 
0.535393 0 0.2 0.2 0 0 0 0.2 0.206 
0.122 0.153 0.558 1.71 0.161 0.216 0.138 0.0489 1.14 
2.57 3.7 
FIELD FieldData 2
CS134 1 1001 double
0.0824 0 0.087 0 0.021 0.08 0.009 0.046 0.032 
0 0.12 0.0078 0.044 0 0 0.0073 0.0029 0.013 
0.0087 0.03 0 0 0.01258 0.09 0.002 0.002 0.0034 
0 0.014 0.22 0.24 0.167 0.163 0.167 0.093 0.104 
0.068 0.079 0.069 0 0 0 0 0 0 
0 0 0 0 0 0 0.184 0.144 0.122 
0.01 0 0 0.001 0.0025 0.0009 0.00045 0.012 0.033 
0.064 0.23199 2.3606 0.23606 0.06919 0.17501 0.2442 0.277798 0.212486 
0.0035 0 0 0 0 0 0 0.0125 0.00279 
0.00691 0.0391 0.184 0.04 0.0029 0.00477 0.00552 0.252 0.456 
0.58 0.0824 0 0.087 0 0.021 0.08 0.009 0.046 
0.032 0 0.12 0.0078 0.044 0 0 0.0073 0.0029 
0.013 0.0087 0.03 0 0 0.01258 0.09 0.002 0.002 
0.0034 0 0.014 0.22 0.24 0.167 0.163 0.167 0.093 
0.104 0.068 0.079 0.069 0 0 0 0 0 
0 0 0 0 0 0 0 0.184 0.144 
0.122 0.01 0 0 0.001 0.0025 0.0009 0.00045 0.012 
0.033 0.064 0.23199 2.3606 0.23606 0.06919 0.17501 0.2442 0.277798 
0.212486 0.0035 0 0 0 0 0 0 0.0125 
0.00279 0.00691 0.0391 0.184 0.04 0.0029 0.00477 0.00552 0.252 
0.456 0.58 0.0824 0 0.087 0 0.021 0.08 0.009 
0.046 0.032 0 0.12 0.0078 0.044 0 0 0.0073 
0.0029 0.013 0.0087 0.03 0 0 0.01258 0.09 0.002 
0.002 0.0034 0 0.014 0.22 0.24 0.167 0.163 0.167 
0.093 0.104 0.068 0.079 0.069 0 0 0 0 
0 0 0 0 0 0 0 0 0.184 
0.144 0.122 0.01 0 0 0.001 0.0025 0.0009 0.00045 
0.012 0.033 0.064 0.23199 2.3606 0.23606 0.06919 0.17501 0.2442 
0.277798 0.212486 0.0035 0 0 0 0 0 0 
0.0125 0.00279 0.00691 0.0391 0.184 0.04 0.0029 0.00477 0.00552 
0.252 0.456 0.58 0.0824 0 0.087 0 0.021 0.08 
0.009 0.046 0.032 0 0.12 0.0078 0.044 0 0 
0.0073 0.0029 0.013 0.0087 0.03 0 0 0.01258 0.09 
0.002 0.002 0.0034 0 0.014 0.22 0.24 0.167 0.163 
0.167 0.093 0.104 0.068 0.079 0.069 0 0 0 
0 0 0 0 0 0 0 0 0 
0.184 0.144 0.122 0.01 0 0 0.001 0.0025 0.0009 
0.00045 0.012 0.033 0.064 0.23199 2.3606 0.23606 0.06919 0.17501 
0.2442 0.277798 0.212486 0.0035 0 0 0 0 0 
0 0.0125 0.00279 0.00691 0.0391 0.184 0.04 0.0029 0.00477 
0.00552 0.252 0.456 0.58 0.0824 0 0.087 0 0.021 
0.08 0.009 0.046 0.032 0 0.12 0.0078 0.044 0 
0 0.0073 0.0029 0.013 0.0087 0.03 0 0 0.01258 
0.09 0.002 0.002 0.0034 0 0.014 0.22 0.24 0.167 
0.163 0.167 0.093 0.104 0.068 0.079 0.069 0 0 
0 0 0 0 0 0 0 0 0 
0 0.184 0.144 0.122 0.01 0 0 0.001 0.0025 
0.0009 0.00045 0.012 0.033 0.064 0.23199 2.3606 0.23606 0.06919 
0.17501 0.2442 0.277798 0.212486 0.0035 0 0 0 0 
0 0 0.0125 0.00279 0.00691 0.0391 0.184 0.04 0.0029 
0.00477 0.00552 0.252 0.456 0.58 0.0824 0 0.087 0 
0.021 0.08 0.009 0.046 0.032 0 0.12 0.0078 0.044 
0 0 0.0073 0.0029 0.013 0.0087 0.03 0 0 
0.01258 0.09 0.002 0.002 0.0034 0 0.014 0.22 0.24 
0.167 0.163 0.167 0.093 0.104 0.068 0.079 0.069 0 
0 0 0 0 0 0 0 0 0 
0 0 0.184 0.144 0.122 0.01 0 0 0.001 
0.0025 0.0009 0.00045 0.012 0.033 0.064 0.23199 2.3606 0.23606 
0.06919 0.17501 0.2442 0.277798 0.212486 0.0035 0 0 0 
0 0 0 0.0125 0.00279 0.00691 0.0391 0.184 0.04 
0.0029 0.00477 0.00552 0.252 0.456 0.58 0.0824 0 0.087 
0 0.021 0.08 0.009 0.046 0.032 0 0.12 0.0078 
0.044 0 0 0.0073 0.0029 0.013 0.0087 0.03 0 
0 0.01258 0.09 0.002 0.002 0.0034 0 0.014 0.22 
0.24 0.167 0.163 0.167 0.093 0.104 0.068 0.079 0.069 
0 0 0 0 0 0 0 0 0 
0 0 0 0.184 0.144 0.122 0.01 0 0 
0.001 0.0025 0.0009 0.00045 0.012 0.033 0.064 0.23199 2.3606 
0.23606 0.06919 0.17501 0.2442 0.277798 0.212486 0.0035 0 0 
0 0 0 0 0.0125 0.00279 0.00691 0.0391 0.184 
0.04 0.0029 0.00477 0.00552 0.252 0.456 0.58 0.0824 0 
0.087 0 0.021 0.08 0.009 0.046 0.032 0 0.12 
0.0078 0.044 0 0 0.0073 0.0029 0.013 0.0087 0.03 
0 0 0.01258 0.09 0.002 0.002 0.0034 0 0.014 
0.22 0.24 0.167 0.163 0.167 0.093 0.104 0.068 0.079 
0.069 0 0 0 0 0 0 0 0 
0 0 0 0 0.184 0.144 0.122 0.01 0 
0 0.001 0.0025 0.0009 0.00045 0.012 0.033 0.064 0.23199 
2.3606 0.23606 0.06919 0.17501 0.2442 0.277798 0.212486 0.0035 0 
0 0 0 0 0 0.0125 0.00279 0.00691 0.0391 
0.184 0.04 0.0029 0.00477 0.00552 0.252 0.456 0.58 0.0824 
0 0.087 0 0.021 0.08 0.009 0.046 0.032 0 
0.12 0.0078 0.044 0 0 0.0073 0.0029 0.013 0.0087 
0.03 0 0 0.01258 0.09 0.002 0.002 0.0034 0 
0.014 0.22 0.24 0.167 0.163 0.167 0.093 0.104 0.068 
0.079 0.069 0 0 0 0 0 0 0 
0 0 0 0 0 0.184 0.144 0.122 0.01 
0 0 0.001 0.0025 0.0009 0.00045 0.012 0.033 0.064 
0.23199 2.3606 0.23606 0.06919 0.17501 0.2442 0.277798 0.212486 0.0035 
0 0 0 0 0 0 0.0125 0.00279 0.00691 
0.0391 0.184 0.04 0.0029 0.00477 0.00552 0.252 0.456 0.58 
0.0824 0 0.087 0 0.021 0.08 0.009 0.046 0.032 
0 0.12 0.0078 0.044 0 0 0.0073 0.0029 0.013 
0.0087 0.03 0 0 0.01258 0.09 0.002 0.002 0.0034 
0 0.014 0.22 0.24 0.167 0.163 0.167 0.093 0.104 
0.068 0.079 0.069 0 0 0 0 0 0 
0 0 0 0 0 0 0.184 0.144 0.122 
0.01 0 0 0.001 0.0025 0.0009 0.00045 0.012 0.033 
0.064 0.23199 2.3606 0.23606 0.06919 0.17501 0.2442 0.277798 0.212486 
0.0035 0 0 0 0 0 0 0.0125 0.00279 
0.00691 0.0391 0.184 0.04 0.0029 0.00477 0.00552 0.252 0.456 
0.58 0.0824 0 0.087 0 0.021 0.08 0.009 0.046 
0.032 0 0.12 0.0078 0.044 0 0 0.0073 0.0029 
0.013 0.0087 0.03 0 0 0.01258 0.09 0.002 0.002 
0.0034 0 0.014 0.22 0.24 0.167 0.163 0.167 0.093 
0.104 0.068 0.079 0.069 0 0 0 0 0 
0 0 0 0 0 0 0 0.184 0.144 
0.122 0.01 0 0 0.001 0.0025 0.0009 0.00045 0.012 
0.033 0.064 0.23199 2.3606 0.23606 0.06919 0.17501 0.2442 0.277798 
0.212486 0.0035 0 0 0 0 0 0 0.0125 
0.00279 0.00691 0.0391 0.184 0.04 0.0029 0.00477 0.00552 0.252 
0.456 0.58 
CS137 1 1001 double
0.1544 0.022 0.00154 0.36 0.07 0.16 0.017 0.093 0.078 
0.077 0.3 0.0166 0.074 0.26 0.13 0.014 0.005 0.022 
0 0.075 0 0.014 0.02109 0.18 0.0038 0.0039 0.0096 
0 0.028 0.426 0.4 0.333 0.315 0.333 0.185 0.193 
0.16 0.171 0.155 0.83 0.57 0.52 0.47 0.37 0.31 
0.23 0.25 0.19 0.17 0.17 0.13 0 0.296 0.256 
0.02 0.011 0 0.002 0.004 0.0018 0.00102 0.026 0.063 
0.1265 0.4181 4.181 0.4477 0.1369 0.3367 0.481 0.485997 0.316527 
0.0061 0.07 0.015 0.016 0.0135 0.012 0.04 0.0227 0.00472 
0.0116 0.0715 0.347 0.0742 0.00475 0.00814 0.00934 0.3 0.803 
1.2 0.1544 0.022 0.00154 0.36 0.07 0.16 0.017 0.093 
0.078 0.077 0.3 0.0166 0.074 0.26 0.13 0.014 0.005 
0.022 0 0.075 0 0.014 0.02109 0.18 0.0038 0.0039 
0.0096 0 0.028 0.426 0.4 0.333 0.315 0.333 0.185 
0.193 0.16 0.171 0.155 0.83 0.57 0.52 0.47 0.37 
0.31 0.23 0.25 0.19 0.17 0.17 0.13 0 0.296 
0.256 0.02 0.011 0 0.002 0.004 0.0018 0.00102 0.026 
0.063 0.1265 0.4181 4.181 0.4477 0.1369 0.3367 0.481 0.485997 
0.316527 0.0061 0.07 0.015 0.016 0.0135 0.012 0.04 0.0227 
0.00472 0.0116 0.0715 0.347 0.0742 0.00475 0.00814 0.00934 0.3 
0.803 1.2 0.1544 0.022 0.00154 0.36 0.07 0.16 0.017 
0.093 0.078 0.077 0.3 0.0166 0.074 0.26 0.13 0.014 
0.005 0.022 0 0.075 0 0.014 0.02109 0.18 0.0038 
0.0039 0.0096 0 0.028 0.426 0.4 0.333 0.315 0.333 
0.185 0.193 0.16 0.171 0.155 0.83 0.57 0.52 0.47 
0.37 0.31 0.23 0.25 0.19 0.17 0.17 0.13 0 
0.296 0.256 0.02 0.011 0 0.002 0.004 0.0018 0.00102 
0.026 0.063 0.1265 0.4181 4.181 0.4477 0.1369 0.3367 0.481 
0.485997 0.316527 0.0061 0.07 0.015 0.016 0.0135 0.012 0.04 
0.0227 0.00472 0.0116 0.0715 0.347 0.0742 0.00475 0.00814 0.00934 
0.3 0.803 1.2 0.1544 0.022 0.00154 0.36 0.07 0.16 
0.017 0.093 0.078 0.077 0.3 0.0166 0.074 0.26 0.13 
0.014 0.005 0.022 0 0.075 0 0.014 0.02109 0.18 
0.0038 0.0039 0.0096 0 0.028 0.426 0.4 0.333 0.315 
0.333 0.185 0.193 0.16 0.171 0.155 0.83 0.57 0.52 
0.47 0.37 0.31 0.23 0.25 0.19 0.17 0.17 0.13 
0 0.296 0.256 0.02 0.011 0 0.002 0.004 0.0018 
0.00102 0.026 0.063 0.1265 0.4181 4.181 0.4477 0.1369 0.3367 
0.481 0.485997 0.316527 0.0061 0.07 0.015 0.016 0.0135 0.012 
0.04 0.0227 0.00472 0.0116 0.0715 0.347 0.0742 0.00475 0.00814 
0.00934 0.3 0.803 1.2 0.1544 0.022 0.00154 0.36 0.07 
0.16 0.017 0.093 0.078 0.077 0.3 0.0166 0.074 0.26 
0.13 0.014 0.005 0.022 0 0.075 0 0.014 0.02109 
0.18 0.0038 0.0039 0.0096 0 0.028 0.426 0.4 0.333 
0.315 0.333 0.185 0.193 0.16 0.171 0.155 0.83 0.57 
0.52 0.47 0.37 0.31 0.23 0.25 0.19 0.17 0.17 
0.13 0 0.296 0.256 0.02 0.011 0 0.002 0.004 
0.0018 0.00102 0.026 0.063 0.1265 0.4181 4.181 0.4477 0.1369 
0.3367 0.481 0.485997 0.316527 0.0061 0.07 0.015 0.016 0.0135 
0.012 0.04 0.0227 0.00472 0.0116 0.0715 0.347 0.0742 0.00475 
0.00814 0.00934 0.3 0.803 1.2 0.1544 0.022 0.00154 0.36 
0.07 0.16 0.017 0.093 0.078 0.077 0.3 0.0166 0.074 
0.26 0.13 0.014 0.005 0.022 0 0.075 0 0.014 
0.02109 0.18 0.0038 0.0039 0.0096 0 0.028 0.426 0.4 
0.333 0.315 0.333 0.185 0.193 0.16 0.171 0.155 0.83 
0.57 0.52 0.47 0.37 0.31 0.23 0.25 0.19 0.17 
0.17 0.13 0 0.296 0.256 0.02 0.011 0 0.002 
0.004 0.0018 0.00102 0.026 0.063 0.1265 0.4181 4.181 0.4477 
0.1369 0.3367 0.481 0.485997 0.316527 0.0061 0.07 0.015 0.016 
0.0135 0.012 0.04 0.0227 0.00472 0.0116 0.0715 0.347 0.0742 
0.00475 0.00814 0.00934 0.3 0.803 1.2 0.1544 0.022 0.00154 
0.36 0.07 0.16 0.017 0.093 0.078 0.077 0.3 0.0166 
0.074 0.26 0.13 0.014 0.005 0.022 0 0.075 0 
0.014 0.02109 0.18 0.0038 0.0039 0.0096 0 0.028 0.426 
0.4 0.333 0.315 0.333 0.185 0.193 0.16 0.171 0.155 
0.83 0.57 0.52 0.47 0.37 0.31 0.23 0.25 0.19 
0.17 0.17 0.13 0 0.296 0.256 0.02 0.011 0 
0.002 0.004 0.0018 0.00102 0.026 0.063 0.1265 0.4181 4.181 
0.4477 0.1369 0.3367 0.481 0.485997 0.316527 0.0061 0.07 0.015 
0.016 0.0135 0.012 0.04 0.0227 0.00472 0.0116 0.0715 0.347 
0.0742 0.00475 0.00814 0.00934 0.3 0.803 1.2 0.1544 0.022 
0.00154 0.36 0.07 0.16 0.017 0.093 0.078 0.077 0.3 
0.0166 0.074 0.26 0.13 0.014 0.005 0.022 0 0.075 
0 0.014 0.02109 0.18 0.0038 0.0039 0.0096 0 0.028 
0.426 0.4 0.333 0.315 0.333 0.185 0.193 0.16 0.171 
0.155 0.83 0.57 0.52 0.47 0.37 0.31 0.23 0.25 
0.19 0.17 0.17 0.13 0 0.296 0.256 0.02 0.011 
0 0.002 0.004 0.0018 0.00102 0.026 0.063 0.1265 0.4181 
4.181 0.4477 0.1369 0.3367 0.481 0.485997 0.316527 0.0061 0.07 
0.015 0.016 0.0135 0.012 0.04 0.0227 0.00472 0.0116 0.0715 
0.347 0.0742 0.00475 0.00814 0.00934 0.3 0.803 1.2 0.1544 
0.022 0.00154 0.36 0.07 0.16 0.017 0.093 0.078 0.077 
0.3 0.0166 0.074 0.26 0.13 0.014 0.005 0.022 0 
0.075 0 0.014 0.02109 0.18 0.0038 0.0039 0.0096 0 
0.028 0.426 0.4 0.333 0.315 0.333 0.185 0.193 0.16 
0.171 0.155 0.83 0.57 0.52 0.47 0.37 0.31 0.23 
0.25 0.19 0.17 0.17 0.13 0 0.296 0.256 0.02 
0.011 0 0.002 0.004 0.0018 0.00102 0.026 0.063 0.1265 
0.4181 4.181 0.4477 0.1369 0.3367 0.481 0.485997 0.316527 0.0061 
0.07 0.015 0.016 0.0135 0.012 0.04 0.0227 0.00472 0.0116 
0.0715 0.347 0.0742 0.00475 0.00814 0.00934 0.3 0.803 1.2 
0.1544 0.022 0.00154 0.36 0.07 0.16 0.017 0.093 0.078 
0.077 0.3 0.0166 0.074 0.26 0.13 0.014 0.005 0.022 
0 0.075 0 0.014 0.02109 0.18 0.0038 0.0039 0.0096 
0 0.028 0.426 0.4 0.333 0.315 0.333 0.185 0.193 
0.16 0.171 0.155 0.83 0.57 0.52 0.47 0.37 0.31 
0.23 0.25 0.19 0.17 0.17 0.13 0 0.296 0.256 
0.02 0.011 0 0.002 0.004 0.0018 0.00102 0.026 0.063 
0.1265 0.4181 4.181 0.4477 0.1369 0.3367 0.481 0.485997 0.316527 
0.0061 0.07 0.015 0.016 0.0135 0.012 0.04 0.0227 0.00472 
0.0116 0.0715 0.347 0.0742 0.00475 0.00814 0.00934 0.3 0.803 
1.2 0.1544 0.022 0.00154 0.36 0.07 0.16 0.017 0.093 
0.078 0.077 0.3 0.0166 0.074 0.26 0.13 0.014 0.005 
0.022 0 0.075 0 0.014 0.02109 0.18 0.0038 0.0039 
0.0096 0 0.028 0.426 0.4 0.333 0.315 0.333 0.185 
0.193 0.16 0.171 0.155 0.83 0.57 0.52 0.47 0.37 
0.31 0.23 0.25 0.19 0.17 0.17 0.13 0 0.296 
0.256 0.02 0.011 0 0.002 0.004 0.0018 0.00102 0.026 
0.063 0.1265 0.4181 4.181 0.4477 0.1369 0.3367 0.481 0.485997 
0.316527 0.0061 0.07 0.015 0.016 0.0135 0.012 0.04 0.0227 
0.00472 0.0116 0.0715 0.347 0.0742 0.00475 0.00814 0.00934 0.3 
0.803 1.2 
