# vtk DataFile Version 5.1
vtk output
ASCII
DATASET POLYDATA
POINTS 748 double
6.1 50.76 0 13.42 52.5 0 7.87 48 0 
7.87 48 0 9.95 51.53 0 9.73 52.38 0 
8.67 49 0 11.58 48.13 0 7.15 53.71 0 
8.77 50.1 0 5.75 43.71 0 0.25 47.15 0 
4.81 50.1 0 4.8 44.63 0 7.56 47.91 0 
-1.9 49.55 0 2.31 51 0 7.42 43.73 0 
2.18 48.68 0 2.36 48.85 0 2.16 48.73 0 
4.73 44.33 0 5.38 49.15 0 11.33 44.48 0 
11.33 44.48 0 12.3 42.03 0 12.3 42.03 0 
8.63 45.8 0 16.63 40.17 0 16.63 40.17 0 
5.18 52.11 0 6.53 53.25 0 23.78 38 0 
21.79 40.31 0 22.95 40.59 0 -2.45 51.69 0 
-3.61 55.06 0 -4.83 56 0 5.12 51.18 0 
-0.4 39.48 0 7.42 46.42 0 9.78 47.51 0 
11.41 47.28 0 11.41 47.28 0 14.33 46.63 0 
14.33 46.63 0 14.33 46.63 0 13.05 47.9 0 
24.7 60.45 0 10.66 59.9 0 10.66 59.9 0 
9.8 59.9 0 9.8 59.9 0 9.8 59.9 0 
9.8 59.9 0 10.95 63.45 0 12 57.75 0 
13.92 56.82 0 13.92 56.82 0 13.92 56.82 0 
14.67 63.17 0 18.08 59.33 0 18.08 59.33 0 
18.08 59.33 0 20.25 63.83 0 48.97 14.43 0 
21.25 48.73 0 19.1 47.5 0 6.1 50.76 0 
13.42 52.5 0 7.87 48 0 7.87 48 0 
9.95 51.53 0 9.73 52.38 0 8.67 49 0 
11.58 48.13 0 7.15 53.71 0 8.77 50.1 0 
5.75 43.71 0 0.25 47.15 0 4.81 50.1 0 
4.8 44.63 0 7.56 47.91 0 -1.9 49.55 0 
2.31 51 0 7.42 43.73 0 2.18 48.68 0 
2.36 48.85 0 2.16 48.73 0 4.73 44.33 0 
5.38 49.15 0 11.33 44.48 0 11.33 44.48 0 
12.3 42.03 0 12.3 42.03 0 8.63 45.8 0 
16.63 40.17 0 16.63 40.17 0 5.18 52.11 0 
6.53 53.25 0 23.78 38 0 21.79 40.31 0 
22.95 40.59 0 -2.45 51.69 0 -3.61 55.06 0 
-4.83 56 0 5.12 51.18 0 -0.4 39.48 0 
7.42 46.42 0 9.78 47.51 0 11.41 47.28 0 
11.41 47.28 0 14.33 46.63 0 14.33 46.63 0 
14.33 46.63 0 13.05 47.9 0 24.7 60.45 0 
10.66 59.9 0 10.66 59.9 0 9.8 59.9 0 
9.8 59.9 0 9.8 59.9 0 9.8 59.9 0 
10.95 63.45 0 12 57.75 0 13.92 56.82 0 
13.92 56.82 0 13.92 56.82 0 14.67 63.17 0 
18.08 59.33 0 18.08 59.33 0 18.08 59.33 0 
20.25 63.83 0 48.97 14.43 0 21.25 48.73 0 
19.1 47.5 0 6.1 50.76 1 13.42 52.5 1 
7.87 48 1 7.87 48 1 9.95 51.53 1 
9.73 52.38 1 8.67 49 1 11.58 48.13 1 
7.15 53.71 1 8.77 50.1 1 5.75 43.71 1 
0.25 47.15 1 4.81 50.1 1 4.8 44.63 1 
7.56 47.91 1 -1.9 49.55 1 2.31 51 1 
7.42 43.73 1 2.18 48.68 1 2.36 48.85 1 
2.16 48.73 1 4.73 44.33 1 5.38 49.15 1 
11.33 44.48 1 11.33 44.48 1 12.3 42.03 1 
12.3 42.03 1 8.63 45.8 1 16.63 40.17 1 
16.63 40.17 1 5.18 52.11 1 6.53 53.25 1 
23.78 38 1 21.79 40.31 1 22.95 40.59 1 
-2.45 51.69 1 -3.61 55.06 1 -4.83 56 1 
5.12 51.18 1 -0.4 39.48 1 7.42 46.42 1 
9.78 47.51 1 11.41 47.28 1 11.41 47.28 1 
14.33 46.63 1 14.33 46.63 1 14.33 46.63 1 
13.05 47.9 1 24.7 60.45 1 10.66 59.9 1 
10.66 59.9 1 9.8 59.9 1 9.8 59.9 1 
9.8 59.9 1 9.8 59.9 1 10.95 63.45 1 
12 57.75 1 13.92 56.82 1 13.92 56.82 1 
13.92 56.82 1 14.67 63.17 1 18.08 59.33 1 
18.08 59.33 1 18.08 59.33 1 20.25 63.83 1 
48.97 14.43 1 21.25 48.73 1 19.1 47.5 1 
6.1 50.76 2 13.42 52.5 2 7.87 48 2 
7.87 48 2 9.95 51.53 2 9.73 52.38 2 
8.67 49 2 11.58 48.13 2 7.15 53.71 2 
8.77 50.1 2 5.75 43.71 2 0.25 47.15 2 
4.81 50.1 2 4.8 44.63 2 7.56 47.91 2 
-1.9 49.55 2 2.31 51 2 7.42 43.73 2 
2.18 48.68 2 2.36 48.85 2 2.16 48.73 2 
4.73 44.33 2 5.38 49.15 2 11.33 44.48 2 
11.33 44.48 2 12.3 42.03 2 12.3 42.03 2 
8.63 45.8 2 16.63 40.17 2 16.63 40.17 2 
5.18 52.11 2 6.53 53.25 2 23.78 38 2 
21.79 40.31 2 22.95 40.59 2 -2.45 51.69 2 
-3.61 55.06 2 -4.83 56 2 5.12 51.18 2 
-0.4 39.48 2 7.42 46.42 2 9.78 47.51 2 
11.41 47.28 2 11.41 47.28 2 14.33 46.63 2 
14.33 46.63 2 14.33 46.63 2 13.05 47.9 2 
24.7 60.45 2 10.66 59.9 2 10.66 59.9 2 
9.8 59.9 2 9.8 59.9 2 9.8 59.9 2 
9.8 59.9 2 10.95 63.45 2 12 57.75 2 
13.92 56.82 2 13.92 56.82 2 13.92 56.82 2 
14.67 63.17 2 18.08 59.33 2 18.08 59.33 2 
18.08 59.33 2 20.25 63.83 2 48.97 14.43 2 
21.25 48.73 2 19.1 47.5 2 6.1 50.76 3 
13.42 52.5 3 7.87 48 3 7.87 48 3 
9.95 51.53 3 9.73 52.38 3 8.67 49 3 
11.58 48.13 3 7.15 53.71 3 8.77 50.1 3 
5.75 43.71 3 0.25 47.15 3 4.81 50.1 3 
4.8 44.63 3 7.56 47.91 3 -1.9 49.55 3 
2.31 51 3 7.42 43.73 3 2.18 48.68 3 
2.36 48.85 3 2.16 48.73 3 4.73 44.33 3 
5.38 49.15 3 11.33 44.48 3 11.33 44.48 3 
12.3 42.03 3 12.3 42.03 3 8.63 45.8 3 
16.63 40.17 3 16.63 40.17 3 5.18 52.11 3 
6.53 53.25 3 23.78 38 3 21.79 40.31 3 
22.95 40.59 3 -2.45 51.69 3 -3.61 55.06 3 
-4.83 56 3 5.12 51.18 3 -0.4 39.48 3 
7.42 46.42 3 9.78 47.51 3 11.41 47.28 3 
11.41 47.28 3 14.33 46.63 3 14.33 46.63 3 
14.33 46.63 3 13.05 47.9 3 24.7 60.45 3 
10.66 59.9 3 10.66 59.9 3 9.8 59.9 3 
9.8 59.9 3 9.8 59.9 3 9.8 59.9 3 
10.95 63.45 3 12 57.75 3 13.92 56.82 3 
13.92 56.82 3 13.92 56.82 3 14.67 63.17 3 
18.08 59.33 3 18.08 59.33 3 18.08 59.33 3 
20.25 63.83 3 48.97 14.43 3 21.25 48.73 3 
19.1 47.5 3 6.1 50.76 4 13.42 52.5 4 
7.87 48 4 7.87 48 4 9.95 51.53 4 
9.73 52.38 4 8.67 49 4 11.58 48.13 4 
7.15 53.71 4 8.77 50.1 4 5.75 43.71 4 
0.25 47.15 4 4.81 50.1 4 4.8 44.63 4 
7.56 47.91 4 -1.9 49.55 4 2.31 51 4 
7.42 43.73 4 2.18 48.68 4 2.36 48.85 4 
2.16 48.73 4 4.73 44.33 4 5.38 49.15 4 
11.33 44.48 4 11.33 44.48 4 12.3 42.03 4 
12.3 42.03 4 8.63 45.8 4 16.63 40.17 4 
16.63 40.17 4 5.18 52.11 4 6.53 53.25 4 
23.78 38 4 21.79 40.31 4 22.95 40.59 4 
-2.45 51.69 4 -3.61 55.06 4 -4.83 56 4 
5.12 51.18 4 -0.4 39.48 4 7.42 46.42 4 
9.78 47.51 4 11.41 47.28 4 11.41 47.28 4 
14.33 46.63 4 14.33 46.63 4 14.33 46.63 4 
13.05 47.9 4 24.7 60.45 4 10.66 59.9 4 
10.66 59.9 4 9.8 59.9 4 9.8 59.9 4 
9.8 59.9 4 9.8 59.9 4 10.95 63.45 4 
12 57.75 4 13.92 56.82 4 13.92 56.82 4 
13.92 56.82 4 14.67 63.17 4 18.08 59.33 4 
18.08 59.33 4 18.08 59.33 4 20.25 63.83 4 
48.97 14.43 4 21.25 48.73 4 19.1 47.5 4 
6.1 50.76 5 13.42 52.5 5 7.87 48 5 
7.87 48 5 9.95 51.53 5 9.73 52.38 5 
8.67 49 5 11.58 48.13 5 7.15 53.71 5 
8.77 50.1 5 5.75 43.71 5 0.25 47.15 5 
4.81 50.1 5 4.8 44.63 5 7.56 47.91 5 
-1.9 49.55 5 2.31 51 5 7.42 43.73 5 
2.18 48.68 5 2.36 48.85 5 2.16 48.73 5 
4.73 44.33 5 5.38 49.15 5 11.33 44.48 5 
11.33 44.48 5 12.3 42.03 5 12.3 42.03 5 
8.63 45.8 5 16.63 40.17 5 16.63 40.17 5 
5.18 52.11 5 6.53 53.25 5 23.78 38 5 
21.79 40.31 5 22.95 40.59 5 -2.45 51.69 5 
-3.61 55.06 5 -4.83 56 5 5.12 51.18 5 
-0.4 39.48 5 7.42 46.42 5 9.78 47.51 5 
11.41 47.28 5 11.41 47.28 5 14.33 46.63 5 
14.33 46.63 5 14.33 46.63 5 13.05 47.9 5 
24.7 60.45 5 10.66 59.9 5 10.66 59.9 5 
9.8 59.9 5 9.8 59.9 5 9.8 59.9 5 
9.8 59.9 5 10.95 63.45 5 12 57.75 5 
13.92 56.82 5 13.92 56.82 5 13.92 56.82 5 
14.67 63.17 5 18.08 59.33 5 18.08 59.33 5 
18.08 59.33 5 20.25 63.83 5 48.97 14.43 5 
21.25 48.73 5 19.1 47.5 5 6.1 50.76 6 
13.42 52.5 6 7.87 48 6 7.87 48 6 
9.95 51.53 6 9.73 52.38 6 8.67 49 6 
11.58 48.13 6 7.15 53.71 6 8.77 50.1 6 
5.75 43.71 6 0.25 47.15 6 4.81 50.1 6 
4.8 44.63 6 7.56 47.91 6 -1.9 49.55 6 
2.31 51 6 7.42 43.73 6 2.18 48.68 6 
2.36 48.85 6 2.16 48.73 6 4.73 44.33 6 
5.38 49.15 6 11.33 44.48 6 11.33 44.48 6 
12.3 42.03 6 12.3 42.03 6 8.63 45.8 6 
16.63 40.17 6 16.63 40.17 6 5.18 52.11 6 
6.53 53.25 6 23.78 38 6 21.79 40.31 6 
22.95 40.59 6 -2.45 51.69 6 -3.61 55.06 6 
-4.83 56 6 5.12 51.18 6 -0.4 39.48 6 
7.42 46.42 6 9.78 47.51 6 11.41 47.28 6 
11.41 47.28 6 14.33 46.63 6 14.33 46.63 6 
14.33 46.63 6 13.05 47.9 6 24.7 60.45 6 
10.66 59.9 6 10.66 59.9 6 9.8 59.9 6 
9.8 59.9 6 9.8 59.9 6 9.8 59.9 6 
10.95 63.45 6 12 57.75 6 13.92 56.82 6 
13.92 56.82 6 13.92 56.82 6 14.67 63.17 6 
18.08 59.33 6 18.08 59.33 6 18.08 59.33 6 
20.25 63.83 6 48.97 14.43 6 21.25 48.73 6 
19.1 47.5 6 6.1 50.76 7 13.42 52.5 7 
7.87 48 7 7.87 48 7 9.95 51.53 7 
9.73 52.38 7 8.67 49 7 11.58 48.13 7 
7.15 53.71 7 8.77 50.1 7 5.75 43.71 7 
0.25 47.15 7 4.81 50.1 7 4.8 44.63 7 
7.56 47.91 7 -1.9 49.55 7 2.31 51 7 
7.42 43.73 7 2.18 48.68 7 2.36 48.85 7 
2.16 48.73 7 4.73 44.33 7 5.38 49.15 7 
11.33 44.48 7 11.33 44.48 7 12.3 42.03 7 
12.3 42.03 7 8.63 45.8 7 16.63 40.17 7 
16.63 40.17 7 5.18 52.11 7 6.53 53.25 7 
23.78 38 7 21.79 40.31 7 22.95 40.59 7 
-2.45 51.69 7 -3.61 55.06 7 -4.83 56 7 
5.12 51.18 7 -0.4 39.48 7 7.42 46.42 7 
9.78 47.51 7 11.41 47.28 7 11.41 47.28 7 
14.33 46.63 7 14.33 46.63 7 14.33 46.63 7 
13.05 47.9 7 24.7 60.45 7 10.66 59.9 7 
10.66 59.9 7 9.8 59.9 7 9.8 59.9 7 
9.8 59.9 7 9.8 59.9 7 10.95 63.45 7 
12 57.75 7 13.92 56.82 7 13.92 56.82 7 
13.92 56.82 7 14.67 63.17 7 18.08 59.33 7 
18.08 59.33 7 18.08 59.33 7 20.25 63.83 7 
48.97 14.43 7 21.25 48.73 7 19.1 47.5 7 
6.1 50.76 8 13.42 52.5 8 7.87 48 8 
7.87 48 8 9.95 51.53 8 9.73 52.38 8 
8.67 49 8 11.58 48.13 8 7.15 53.71 8 
8.77 50.1 8 5.75 43.71 8 0.25 47.15 8 
4.81 50.1 8 4.8 44.63 8 7.56 47.91 8 
-1.9 49.55 8 2.31 51 8 7.42 43.73 8 
2.18 48.68 8 2.36 48.85 8 2.16 48.73 8 
4.73 44.33 8 5.38 49.15 8 11.33 44.48 8 
11.33 44.48 8 12.3 42.03 8 12.3 42.03 8 
8.63 45.8 8 16.63 40.17 8 16.63 40.17 8 
5.18 52.11 8 6.53 53.25 8 23.78 38 8 
21.79 40.31 8 22.95 40.59 8 -2.45 51.69 8 
-3.61 55.06 8 -4.83 56 8 5.12 51.18 8 
-0.4 39.48 8 7.42 46.42 8 9.78 47.51 8 
11.41 47.28 8 11.41 47.28 8 14.33 46.63 8 
14.33 46.63 8 14.33 46.63 8 13.05 47.9 8 
24.7 60.45 8 10.66 59.9 8 10.66 59.9 8 
9.8 59.9 8 9.8 59.9 8 9.8 59.9 8 
9.8 59.9 8 10.95 63.45 8 12 57.75 8 
13.92 56.82 8 13.92 56.82 8 13.92 56.82 8 
14.67 63.17 8 18.08 59.33 8 18.08 59.33 8 
18.08 59.33 8 20.25 63.83 8 48.97 14.43 8 
21.25 48.73 8 19.1 47.5 8 6.1 50.76 9 
13.42 52.5 9 7.87 48 9 7.87 48 9 
9.95 51.53 9 9.73 52.38 9 8.67 49 9 
11.58 48.13 9 7.15 53.71 9 8.77 50.1 9 
5.75 43.71 9 0.25 47.15 9 4.81 50.1 9 
4.8 44.63 9 7.56 47.91 9 -1.9 49.55 9 
2.31 51 9 7.42 43.73 9 2.18 48.68 9 
2.36 48.85 9 2.16 48.73 9 4.73 44.33 9 
5.38 49.15 9 11.33 44.48 9 11.33 44.48 9 
12.3 42.03 9 12.3 42.03 9 8.63 45.8 9 
16.63 40.17 9 16.63 40.17 9 5.18 52.11 9 
6.53 53.25 9 23.78 38 9 21.79 40.31 9 
22.95 40.59 9 -2.45 51.69 9 -3.61 55.06 9 
-4.83 56 9 5.12 51.18 9 -0.4 39.48 9 
7.42 46.42 9 9.78 47.51 9 11.41 47.28 9 
11.41 47.28 9 14.33 46.63 9 14.33 46.63 9 
14.33 46.63 9 13.05 47.9 9 24.7 60.45 9 
10.66 59.9 9 10.66 59.9 9 9.8 59.9 9 
9.8 59.9 9 9.8 59.9 9 9.8 59.9 9 
10.95 63.45 9 12 57.75 9 13.92 56.82 9 
13.92 56.82 9 13.92 56.82 9 14.67 63.17 9 
18.08 59.33 9 18.08 59.33 9 18.08 59.33 9 
20.25 63.83 9 48.97 14.43 9 21.25 48.73 9 
19.1 47.5 9 
VERTICES 749 748
OFFSETS vtktypeint64
0 1 2 3 4 5 6 7 8 
9 10 11 12 13 14 15 16 17 
18 19 20 21 22 23 24 25 26 
27 28 29 30 31 32 33 34 35 
36 37 38 39 40 41 42 43 44 
45 46 47 48 49 50 51 52 53 
54 55 56 57 58 59 60 61 62 
63 64 65 66 67 68 69 70 71 
72 73 74 75 76 77 78 79 80 
81 82 83 84 85 86 87 88 89 
90 91 92 93 94 95 96 97 98 
99 100 101 102 103 104 105 106 107 
108 109 110 111 112 113 114 115 116 
117 118 119 120 121 122 123 124 125 
126 127 128 129 130 131 132 133 134 
135 136 137 138 139 140 141 142 143 
144 145 146 147 148 149 150 151 152 
153 154 155 156 157 158 159 160 161 
162 163 164 165 166 167 168 169 170 
171 172 173 174 175 176 177 178 179 
180 181 182 183 184 185 186 187 188 
189 190 191 192 193 194 195 196 197 
198 199 200 201 202 203 204 205 206 
207 208 209 210 211 212 213 214 215 
216 217 218 219 220 221 222 223 224 
225 226 227 228 229 230 231 232 233 
234 235 236 237 238 239 240 241 242 
243 244 245 246 247 248 249 250 251 
252 253 254 255 256 257 258 259 260 
261 262 263 264 265 266 267 268 269 
270 271 272 273 274 275 276 277 278 
279 280 281 282 283 284 285 286 287 
288 289 290 291 292 293 294 295 296 
297 298 299 300 301 302 303 304 305 
306 307 308 309 310 311 312 313 314 
315 316 317 318 319 320 321 322 323 
324 325 326 327 328 329 330 331 332 
333 334 335 336 337 338 339 340 341 
342 343 344 345 346 347 348 349 350 
351 352 353 354 355 356 357 358 359 
360 361 362 363 364 365 366 367 368 
369 370 371 372 373 374 375 376 377 
378 379 380 381 382 383 384 385 386 
387 388 389 390 391 392 393 394 395 
396 397 398 399 400 401 402 403 404 
405 406 407 408 409 410 411 412 413 
414 415 416 417 418 419 420 421 422 
423 424 425 426 427 428 429 430 431 
432 433 434 435 436 437 438 439 440 
441 442 443 444 445 446 447 448 449 
450 451 452 453 454 455 456 457 458 
459 460 461 462 463 464 465 466 467 
468 469 470 471 472 473 474 475 476 
477 478 479 480 481 482 483 484 485 
486 487 488 489 490 491 492 493 494 
495 496 497 498 499 500 501 502 503 
504 505 506 507 508 509 510 511 512 
513 514 515 516 517 518 519 520 521 
522 523 524 525 526 527 528 529 530 
531 532 533 534 535 536 537 538 539 
540 541 542 543 544 545 546 547 548 
549 550 551 552 553 554 555 556 557 
558 559 560 561 562 563 564 565 566 
567 568 569 570 571 572 573 574 575 
576 577 578 579 580 581 582 583 584 
585 586 587 588 589 590 591 592 593 
594 595 596 597 598 599 600 601 602 
603 604 605 606 607 608 609 610 611 
612 613 614 615 616 617 618 619 620 
621 622 623 624 625 626 627 628 629 
630 631 632 633 634 635 636 637 638 
639 640 641 642 643 644 645 646 647 
648 649 650 651 652 653 654 655 656 
657 658 659 660 661 662 663 664 665 
666 667 668 669 670 671 672 673 674 
675 676 677 678 679 680 681 682 683 
684 685 686 687 688 689 690 691 692 
693 694 695 696 697 698 699 700 701 
702 703 704 705 706 707 708 709 710 
711 712 713 714 715 716 717 718 719 
720 721 722 723 724 725 726 727 728 
729 730 731 732 733 734 735 736 737 
738 739 740 741 742 743 744 745 746 
747 748 
CONNECTIVITY vtktypeint64
0 1 2 3 4 5 6 7 8 
9 10 11 12 13 14 15 16 17 
18 19 20 21 22 23 24 25 26 
27 28 29 30 31 32 33 34 35 
36 37 38 39 40 41 42 43 44 
45 46 47 48 49 50 51 52 53 
54 55 56 57 58 59 60 61 62 
63 64 65 66 67 68 69 70 71 
72 73 74 75 76 77 78 79 80 
81 82 83 84 85 86 87 88 89 
90 91 92 93 94 95 96 97 98 
99 100 101 102 103 104 105 106 107 
108 109 110 111 112 113 114 115 116 
117 118 119 120 121 122 123 124 125 
126 127 128 129 130 131 132 133 134 
135 136 137 138 139 140 141 142 143 
144 145 146 147 148 149 150 151 152 
153 154 155 156 157 158 159 160 161 
162 163 164 165 166 167 168 169 170 
171 172 173 174 175 176 177 178 179 
180 181 182 183 184 185 186 187 188 
189 190 191 192 193 194 195 196 197 
198 199 200 201 202 203 204 205 206 
207 208 209 210 211 212 213 214 215 
216 217 218 219 220 221 222 223 224 
225 226 227 228 229 230 231 232 233 
234 235 236 237 238 239 240 241 242 
243 244 245 246 247 248 249 250 251 
252 253 254 255 256 257 258 259 260 
261 262 263 264 265 266 267 268 269 
270 271 272 273 274 275 276 277 278 
279 280 281 282 283 284 285 286 287 
288 289 290 291 292 293 294 295 296 
297 298 299 300 301 302 303 304 305 
306 307 308 309 310 311 312 313 314 
315 316 317 318 319 320 321 322 323 
324 325 326 327 328 329 330 331 332 
333 334 335 336 337 338 339 340 341 
342 343 344 345 346 347 348 349 350 
351 352 353 354 355 356 357 358 359 
360 361 362 363 364 365 366 367 368 
369 370 371 372 373 374 375 376 377 
378 379 380 381 382 383 384 385 386 
387 388 389 390 391 392 393 394 395 
396 397 398 399 400 401 402 403 404 
405 406 407 408 409 410 411 412 413 
414 415 416 417 418 419 420 421 422 
423 424 425 426 427 428 429 430 431 
432 433 434 435 436 437 438 439 440 
441 442 443 444 445 446 447 448 449 
450 451 452 453 454 455 456 457 458 
459 460 461 462 463 464 465 466 467 
468 469 470 471 472 473 474 475 476 
477 478 479 480 481 482 483 484 485 
486 487 488 489 490 491 492 493 494 
495 496 497 498 499 500 501 502 503 
504 505 506 507 508 509 510 511 512 
513 514 515 516 517 518 519 520 521 
522 523 524 525 526 527 528 529 530 
531 532 533 534 535 536 537 538 539 
540 541 542 543 544 545 546 547 548 
549 550 551 552 553 554 555 556 557 
558 559 560 561 562 563 564 565 566 
567 568 569 570 571 572 573 574 575 
576 577 578 579 580 581 582 583 584 
585 586 587 588 589 590 591 592 593 
594 595 596 597 598 599 600 601 602 
603 604 605 606 607 608 609 610 611 
612 613 614 615 616 617 618 619 620 
621 622 623 624 625 626 627 628 629 
630 631 632 633 634 635 636 637 638 
639 640 641 642 643 644 645 646 647 
648 649 650 651 652 653 654 655 656 
657 658 659 660 661 662 663 664 665 
666 667 668 669 670 671 672 673 674 
675 676 677 678 679 680 681 682 683 
684 685 686 687 688 689 690 691 692 
693 694 695 696 697 698 699 700 701 
702 703 704 705 706 707 708 709 710 
711 712 713 714 715 716 717 718 719 
720 721 722 723 724 725 726 727 728 
729 730 731 732 733 734 735 736 737 
738 739 740 741 742 743 744 745 746 
747 
POINT_DATA 748
SCALARS I131 double
LOOKUP_TABLE default
0 0.012 0.013 0.222 0.03 0.01 0 0.014 0.0046 
0.009 0.15 0.011 0.005 0.012 0.013 0.0055 0.009 0.04 
0.017 0.0054 0 0.012 0.0091 0.047 0.07 0.101 0.17 
0.04 0.2 0.093 0.005 0.004 1.8 2 0.35 0.003 
0.032 0.0083 0.0088 0 0.0209 0.02553 0.05328 0.10434 0.02553 
0.05513 0.08103 0.040823 0 0.07 0.25 0 0 0 
0 0.1 0.189 0.0167 0.00827 0.0087 0.178 1.05 1.34 
0.0547 0.0242 0.088 0.962 0.75 0 0.012 0.013 0.222 
0.03 0.01 0 0.014 0.0046 0.009 0.15 0.011 0.005 
0.012 0.013 0.0055 0.009 0.04 0.017 0.0054 0 0.012 
0.0091 0.047 0.07 0.101 0.17 0.04 0.2 0.093 0.005 
0.004 1.8 2 0.35 0.003 0.032 0.0083 0.0088 0 
0.0209 0.02553 0.05328 0.10434 0.02553 0.05513 0.08103 0.040823 0 
0.07 0.25 0 0 0 0 0.1 0.189 0.0167 
0.00827 0.0087 0.178 1.05 1.34 0.0547 0.0242 0.088 0.962 
0.75 0 0.012 0.013 0.222 0.03 0.01 0 0.014 
0.0046 0.009 0.15 0.011 0.005 0.012 0.013 0.0055 0.009 
0.04 0.017 0.0054 0 0.012 0.0091 0.047 0.07 0.101 
0.17 0.04 0.2 0.093 0.005 0.004 1.8 2 0.35 
0.003 0.032 0.0083 0.0088 0 0.0209 0.02553 0.05328 0.10434 
0.02553 0.05513 0.08103 0.040823 0 0.07 0.25 0 0 
0 0 0.1 0.189 0.0167 0.00827 0.0087 0.178 1.05 
1.34 0.0547 0.0242 0.088 0.962 0.75 0 0.012 0.013 
0.222 0.03 0.01 0 0.014 0.0046 0.009 0.15 0.011 
0.005 0.012 0.013 0.0055 0.009 0.04 0.017 0.0054 0 
0.012 0.0091 0.047 0.07 0.101 0.17 0.04 0.2 0.093 
0.005 0.004 1.8 2 0.35 0.003 0.032 0.0083 0.0088 
0 0.0209 0.02553 0.05328 0.10434 0.02553 0.05513 0.08103 0.040823 
0 0.07 0.25 0 0 0 0 0.1 0.189 
0.0167 0.00827 0.0087 0.178 1.05 1.34 0.0547 0.0242 0.088 
0.962 0.75 0 0.012 0.013 0.222 0.03 0.01 0 
0.014 0.0046 0.009 0.15 0.011 0.005 0.012 0.013 0.0055 
0.009 0.04 0.017 0.0054 0 0.012 0.0091 0.047 0.07 
0.101 0.17 0.04 0.2 0.093 0.005 0.004 1.8 2 
0.35 0.003 0.032 0.0083 0.0088 0 0.0209 0.02553 0.05328 
0.10434 0.02553 0.05513 0.08103 0.040823 0 0.07 0.25 0 
0 0 0 0.1 0.189 0.0167 0.00827 0.0087 0.178 
1.05 1.34 0.0547 0.0242 0.088 0.962 0.75 0 0.012 
0.013 0.222 0.03 0.01 0 0.014 0.0046 0.009 0.15 
0.011 0.005 0.012 0.013 0.0055 0.009 0.04 0.017 0.0054 
0 0.012 0.0091 0.047 0.07 0.101 0.17 0.04 0.2 
0.093 0.005 0.004 1.8 2 0.35 0.003 0.032 0.0083 
0.0088 0 0.0209 0.02553 0.05328 0.10434 0.02553 0.05513 0.08103 
0.040823 0 0.07 0.25 0 0 0 0 0.1 
0.189 0.0167 0.00827 0.0087 0.178 1.05 1.34 0.0547 0.0242 
0.088 0.962 0.75 0 0.012 0.013 0.222 0.03 0.01 
0 0.014 0.0046 0.009 0.15 0.011 0.005 0.012 0.013 
0.0055 0.009 0.04 0.017 0.0054 0 0.012 0.0091 0.047 
0.07 0.101 0.17 0.04 0.2 0.093 0.005 0.004 1.8 
2 0.35 0.003 0.032 0.0083 0.0088 0 0.0209 0.02553 
0.05328 0.10434 0.02553 0.05513 0.08103 0.040823 0 0.07 0.25 
0 0 0 0 0.1 0.189 0.0167 0.00827 0.0087 
0.178 1.05 1.34 0.0547 0.0242 0.088 0.962 0.75 0 
0.012 0.013 0.222 0.03 0.01 0 0.014 0.0046 0.009 
0.15 0.011 0.005 0.012 0.013 0.0055 0.009 0.04 0.017 
0.0054 0 0.012 0.0091 0.047 0.07 0.101 0.17 0.04 
0.2 0.093 0.005 0.004 1.8 2 0.35 0.003 0.032 
0.0083 0.0088 0 0.0209 0.02553 0.05328 0.10434 0.02553 0.05513 
0.08103 0.040823 0 0.07 0.25 0 0 0 0 
0.1 0.189 0.0167 0.00827 0.0087 0.178 1.05 1.34 0.0547 
0.0242 0.088 0.962 0.75 0 0.012 0.013 0.222 0.03 
0.01 0 0.014 0.0046 0.009 0.15 0.011 0.005 0.012 
0.013 0.0055 0.009 0.04 0.017 0.0054 0 0.012 0.0091 
0.047 0.07 0.101 0.17 0.04 0.2 0.093 0.005 0.004 
1.8 2 0.35 0.003 0.032 0.0083 0.0088 0 0.0209 
0.02553 0.05328 0.10434 0.02553 0.05513 0.08103 0.040823 0 0.07 
0.25 0 0 0 0 0.1 0.189 0.0167 0.00827 
0.0087 0.178 1.05 1.34 0.0547 0.0242 0.088 0.962 0.75 
0 0.012 0.013 0.222 0.03 0.01 0 0.014 0.0046 
0.009 0.15 0.011 0.005 0.012 0.013 0.0055 0.009 0.04 
0.017 0.0054 0 0.012 0.0091 0.047 0.07 0.101 0.17 
0.04 0.2 0.093 0.005 0.004 1.8 2 0.35 0.003 
0.032 0.0083 0.0088 0 0.0209 0.02553 0.05328 0.10434 0.02553 
0.05513 0.08103 0.040823 0 0.07 0.25 0 0 0 
0 0.1 0.189 0.0167 0.00827 0.0087 0.178 1.05 1.34 
0.0547 0.0242 0.088 0.962 0.75 0 0.012 0.013 0.222 
0.03 0.01 0 0.014 0.0046 0.009 0.15 0.011 0.005 
0.012 0.013 0.0055 0.009 0.04 0.017 0.0054 0 0.012 
0.0091 0.047 0.07 0.101 0.17 0.04 0.2 0.093 0.005 
0.004 1.8 2 0.35 0.003 0.032 0.0083 0.0088 0 
0.0209 0.02553 0.05328 0.10434 0.02553 0.05513 0.08103 0.040823 0 
0.07 0.25 0 0 0 0 0.1 0.189 0.0167 
0.00827 0.0087 0.178 1.05 1.34 0.0547 0.0242 0.088 0.962 
0.75 
FIELD FieldData 2
CS134 1 748 double
0.007 0.0011 0.0013 0.104 0.0019 0.0007 0.0013 0.0016 0.00067 
0.001 0.001 0.0024 0 0 0.0021 0 0 0.02 
0.0025 0.0011 0.0017 0 0.0012 0.013 0.009 0.056 0.059 
0 0.089 0.04 0 0 0 0 0 0.00035 
0.005 0.0009 0.00057 0.0089 0.0013 0.002035 0.001628 0.002849 0.002849 
0.002849 0.003418 0.004043 0.0097 0 0 0 0 0 
0 0 0.0525 0.0015 0.000819 0.000291 0.0256 0.14 0.223 
0.00582 0.00433 0.004 0.371 0.14 0.007 0.0011 0.0013 0.104 
0.0019 0.0007 0.0013 0.0016 0.00067 0.001 0.001 0.0024 0 
0 0.0021 0 0 0.02 0.0025 0.0011 0.0017 0 
0.0012 0.013 0.009 0.056 0.059 0 0.089 0.04 0 
0 0 0 0 0.00035 0.005 0.0009 0.00057 0.0089 
0.0013 0.002035 0.001628 0.002849 0.002849 0.002849 0.003418 0.004043 0.0097 
0 0 0 0 0 0 0 0.0525 0.0015 
0.000819 0.000291 0.0256 0.14 0.223 0.00582 0.00433 0.004 0.371 
0.14 0.007 0.0011 0.0013 0.104 0.0019 0.0007 0.0013 0.0016 
0.00067 0.001 0.001 0.0024 0 0 0.0021 0 0 
0.02 0.0025 0.0011 0.0017 0 0.0012 0.013 0.009 0.056 
0.059 0 0.089 0.04 0 0 0 0 0 
0.00035 0.005 0.0009 0.00057 0.0089 0.0013 0.002035 0.001628 0.002849 
0.002849 0.002849 0.003418 0.004043 0.0097 0 0 0 0 
0 0 0 0.0525 0.0015 0.000819 0.000291 0.0256 0.14 
0.223 0.00582 0.00433 0.004 0.371 0.14 0.007 0.0011 0.0013 
0.104 0.0019 0.0007 0.0013 0.0016 0.00067 0.001 0.001 0.0024 
0 0 0.0021 0 0 0.02 0.0025 0.0011 0.0017 
0 0.0012 0.013 0.009 0.056 0.059 0 0.089 0.04 
0 0 0 0 0 0.00035 0.005 0.0009 0.00057 
0.0089 0.0013 0.002035 0.001628 0.002849 0.002849 0.002849 0.003418 0.004043 
0.0097 0 0 0 0 0 0 0 0.0525 
0.0015 0.000819 0.000291 0.0256 0.14 0.223 0.00582 0.00433 0.004 
0.371 0.14 0.007 0.0011 0.0013 0.104 0.0019 0.0007 0.0013 
0.0016 0.00067 0.001 0.001 0.0024 0 0 0.0021 0 
0 0.02 0.0025 0.0011 0.0017 0 0.0012 0.013 0.009 
0.056 0.059 0 0.089 0.04 0 0 0 0 
0 0.00035 0.005 0.0009 0.00057 0.0089 0.0013 0.002035 0.001628 
0.002849 0.002849 0.002849 0.003418 0.004043 0.0097 0 0 0 
0 0 0 0 0.0525 0.0015 0.000819 0.000291 0.0256 
0.14 0.223 0.00582 0.00433 0.004 0.371 0.14 0.007 0.0011 
0.0013 0.104 0.0019 0.0007 0.0013 0.0016 0.00067 0.001 0.001 
0.0024 0 0 0.0021 0 0 0.02 0.0025 0.0011 
0.0017 0 0.0012 0.013 0.009 0.056 0.059 0 0.089 
0.04 0 0 0 0 0 0.00035 0.005 0.0009 
0.00057 0.0089 0.0013 0.002035 0.001628 0.002849 0.002849 0.002849 0.003418 
0.004043 0.0097 0 0 0 0 0 0 0 
0.0525 0.0015 0.000819 0.000291 0.0256 0.14 0.223 0.00582 0.00433 
0.004 0.371 0.14 0.007 0.0011 0.0013 0.104 0.0019 0.0007 
0.0013 0.0016 0.00067 0.001 0.001 0.0024 0 0 0.0021 
0 0 0.02 0.0025 0.0011 0.0017 0 0.0012 0.013 
0.009 0.056 0.059 0 0.089 0.04 0 0 0 
0 0 0.00035 0.005 0.0009 0.00057 0.0089 0.0013 0.002035 
0.001628 0.002849 0.002849 0.002849 0.003418 0.004043 0.0097 0 0 
0 0 0 0 0 0.0525 0.0015 0.000819 0.000291 
0.0256 0.14 0.223 0.00582 0.00433 0.004 0.371 0.14 0.007 
0.0011 0.0013 0.104 0.0019 0.0007 0.0013 0.0016 0.00067 0.001 
0.001 0.0024 0 0 0.0021 0 0 0.02 0.0025 
0.0011 0.0017 0 0.0012 0.013 0.009 0.056 0.059 0 
0.089 0.04 0 0 0 0 0 0.00035 0.005 
0.0009 0.00057 0.0089 0.0013 0.002035 0.001628 0.002849 0.002849 0.002849 
0.003418 0.004043 0.0097 0 0 0 0 0 0 
0 0.0525 0.0015 0.000819 0.000291 0.0256 0.14 0.223 0.00582 
0.00433 0.004 0.371 0.14 0.007 0.0011 0.0013 0.104 0.0019 
0.0007 0.0013 0.0016 0.00067 0.001 0.001 0.0024 0 0 
0.0021 0 0 0.02 0.0025 0.0011 0.0017 0 0.0012 
0.013 0.009 0.056 0.059 0 0.089 0.04 0 0 
0 0 0 0.00035 0.005 0.0009 0.00057 0.0089 0.0013 
0.002035 0.001628 0.002849 0.002849 0.002849 0.003418 0.004043 0.0097 0 
0 0 0 0 0 0 0.0525 0.0015 0.000819 
0.000291 0.0256 0.14 0.223 0.00582 0.00433 0.004 0.371 0.14 
0.007 0.0011 0.0013 0.104 0.0019 0.0007 0.0013 0.0016 0.00067 
0.001 0.001 0.0024 0 0 0.0021 0 0 0.02 
0.0025 0.0011 0.0017 0 0.0012 0.013 0.009 0.056 0.059 
0 0.089 0.04 0 0 0 0 0 0.00035 
0.005 0.0009 0.00057 0.0089 0.0013 0.002035 0.001628 0.002849 0.002849 
0.002849 0.003418 0.004043 0.0097 0 0 0 0 0 
0 0 0.0525 0.0015 0.000819 0.000291 0.0256 0.14 0.223 
0.00582 0.00433 0.004 0.371 0.14 0.007 0.0011 0.0013 0.104 
0.0019 0.0007 0.0013 0.0016 0.00067 0.001 0.001 0.0024 0 
0 0.0021 0 0 0.02 0.0025 0.0011 0.0017 0 
0.0012 0.013 0.009 0.056 0.059 0 0.089 0.04 0 
0 0 0 0 0.00035 0.005 0.0009 0.00057 0.0089 
0.0013 0.002035 0.001628 0.002849 0.002849 0.002849 0.003418 0.004043 0.0097 
0 0 0 0 0 0 0 0.0525 0.0015 
0.000819 0.000291 0.0256 0.14 0.223 0.00582 0.00433 0.004 0.371 
0.14 
CS137 1 748 double
1.184 0 0.01 0.005 0.0039 0.0015 0.002 0.0042 0.0015 
0 0.002 0.0038 0.0042 0 0.0038 0 0.007 0.05 
0.0045 0.0021 0.0022 0 0.0021 0.017 0.022 0.111 0.115 
0.008 0.189 0.082 0 0.002 0.2 0.4 0.06 0.00046 
0.011 0.0021 0.001 0.0141 0.0025 0.003108 0.00296 0.00444 0.00518 
0.00333 0.00629 0.006048 0.0174 0.015 0.08 0.075 0.03 0.012 
0.005 0.025 0.0955 0.00269 0.00136 0.000499 0.0469 0.25 0.413 
0.0104 0.00763 0.1 0.637 0.29 1.184 0 0.01 0.005 
0.0039 0.0015 0.002 0.0042 0.0015 0 0.002 0.0038 0.0042 
0 0.0038 0 0.007 0.05 0.0045 0.0021 0.0022 0 
0.0021 0.017 0.022 0.111 0.115 0.008 0.189 0.082 0 
0.002 0.2 0.4 0.06 0.00046 0.011 0.0021 0.001 0.0141 
0.0025 0.003108 0.00296 0.00444 0.00518 0.00333 0.00629 0.006048 0.0174 
0.015 0.08 0.075 0.03 0.012 0.005 0.025 0.0955 0.00269 
0.00136 0.000499 0.0469 0.25 0.413 0.0104 0.00763 0.1 0.637 
0.29 1.184 0 0.01 0.005 0.0039 0.0015 0.002 0.0042 
0.0015 0 0.002 0.0038 0.0042 0 0.0038 0 0.007 
0.05 0.0045 0.0021 0.0022 0 0.0021 0.017 0.022 0.111 
0.115 0.008 0.189 0.082 0 0.002 0.2 0.4 0.06 
0.00046 0.011 0.0021 0.001 0.0141 0.0025 0.003108 0.00296 0.00444 
0.00518 0.00333 0.00629 0.006048 0.0174 0.015 0.08 0.075 0.03 
0.012 0.005 0.025 0.0955 0.00269 0.00136 0.000499 0.0469 0.25 
0.413 0.0104 0.00763 0.1 0.637 0.29 1.184 0 0.01 
0.005 0.0039 0.0015 0.002 0.0042 0.0015 0 0.002 0.0038 
0.0042 0 0.0038 0 0.007 0.05 0.0045 0.0021 0.0022 
0 0.0021 0.017 0.022 0.111 0.115 0.008 0.189 0.082 
0 0.002 0.2 0.4 0.06 0.00046 0.011 0.0021 0.001 
0.0141 0.0025 0.003108 0.00296 0.00444 0.00518 0.00333 0.00629 0.006048 
0.0174 0.015 0.08 0.075 0.03 0.012 0.005 0.025 0.0955 
0.00269 0.00136 0.000499 0.0469 0.25 0.413 0.0104 0.00763 0.1 
0.637 0.29 1.184 0 0.01 0.005 0.0039 0.0015 0.002 
0.0042 0.0015 0 0.002 0.0038 0.0042 0 0.0038 0 
0.007 0.05 0.0045 0.0021 0.0022 0 0.0021 0.017 0.022 
0.111 0.115 0.008 0.189 0.082 0 0.002 0.2 0.4 
0.06 0.00046 0.011 0.0021 0.001 0.0141 0.0025 0.003108 0.00296 
0.00444 0.00518 0.00333 0.00629 0.006048 0.0174 0.015 0.08 0.075 
0.03 0.012 0.005 0.025 0.0955 0.00269 0.00136 0.000499 0.0469 
0.25 0.413 0.0104 0.00763 0.1 0.637 0.29 1.184 0 
0.01 0.005 0.0039 0.0015 0.002 0.0042 0.0015 0 0.002 
0.0038 0.0042 0 0.0038 0 0.007 0.05 0.0045 0.0021 
0.0022 0 0.0021 0.017 0.022 0.111 0.115 0.008 0.189 
0.082 0 0.002 0.2 0.4 0.06 0.00046 0.011 0.0021 
0.001 0.0141 0.0025 0.003108 0.00296 0.00444 0.00518 0.00333 0.00629 
0.006048 0.0174 0.015 0.08 0.075 0.03 0.012 0.005 0.025 
0.0955 0.00269 0.00136 0.000499 0.0469 0.25 0.413 0.0104 0.00763 
0.1 0.637 0.29 1.184 0 0.01 0.005 0.0039 0.0015 
0.002 0.0042 0.0015 0 0.002 0.0038 0.0042 0 0.0038 
0 0.007 0.05 0.0045 0.0021 0.0022 0 0.0021 0.017 
0.022 0.111 0.115 0.008 0.189 0.082 0 0.002 0.2 
0.4 0.06 0.00046 0.011 0.0021 0.001 0.0141 0.0025 0.003108 
0.00296 0.00444 0.00518 0.00333 0.00629 0.006048 0.0174 0.015 0.08 
0.075 0.03 0.012 0.005 0.025 0.0955 0.00269 0.00136 0.000499 
0.0469 0.25 0.413 0.0104 0.00763 0.1 0.637 0.29 1.184 
0 0.01 0.005 0.0039 0.0015 0.002 0.0042 0.0015 0 
0.002 0.0038 0.0042 0 0.0038 0 0.007 0.05 0.0045 
0.0021 0.0022 0 0.0021 0.017 0.022 0.111 0.115 0.008 
0.189 0.082 0 0.002 0.2 0.4 0.06 0.00046 0.011 
0.0021 0.001 0.0141 0.0025 0.003108 0.00296 0.00444 0.00518 0.00333 
0.00629 0.006048 0.0174 0.015 0.08 0.075 0.03 0.012 0.005 
0.025 0.0955 0.00269 0.00136 0.000499 0.0469 0.25 0.413 0.0104 
0.00763 0.1 0.637 0.29 1.184 0 0.01 0.005 0.0039 
0.0015 0.002 0.0042 0.0015 0 0.002 0.0038 0.0042 0 
0.0038 0 0.007 0.05 0.0045 0.0021 0.0022 0 0.0021 
0.017 0.022 0.111 0.115 0.008 0.189 0.082 0 0.002 
0.2 0.4 0.06 0.00046 0.011 0.0021 0.001 0.0141 0.0025 
0.003108 0.00296 0.00444 0.00518 0.00333 0.00629 0.006048 0.0174 0.015 
0.08 0.075 0.03 0.012 0.005 0.025 0.0955 0.00269 0.00136 
0.000499 0.0469 0.25 0.413 0.0104 0.00763 0.1 0.637 0.29 
1.184 0 0.01 0.005 0.0039 0.0015 0.002 0.0042 0.0015 
0 0.002 0.0038 0.0042 0 0.0038 0 0.007 0.05 
0.0045 0.0021 0.0022 0 0.0021 0.017 0.022 0.111 0.115 
0.008 0.189 0.082 0 0.002 0.2 0.4 0.06 0.00046 
0.011 0.0021 0.001 0.0141 0.0025 0.003108 0.00296 0.00444 0.00518 
0.00333 0.00629 0.006048 0.0174 0.015 0.08 0.075 0.03 0.012 
0.005 0.025 0.0955 0.00269 0.00136 0.000499 0.0469 0.25 0.413 
0.0104 0.00763 0.1 0.637 0.29 1.184 0 0.01 0.005 
0.0039 0.0015 0.002 0.0042 0.0015 0 0.002 0.0038 0.0042 
0 0.0038 0 0.007 0.05 0.0045 0.0021 0.0022 0 
0.0021 0.017 0.022 0.111 0.115 0.008 0.189 0.082 0 
0.002 0.2 0.4 0.06 0.00046 0.011 0.0021 0.001 0.0141 
0.0025 0.003108 0.00296 0.00444 0.00518 0.00333 0.00629 0.006048 0.0174 
0.015 0.08 0.075 0.03 0.012 0.005 0.025 0.0955 0.00269 
0.00136 0.000499 0.0469 0.25 0.413 0.0104 0.00763 0.1 0.637 
0.29 
