# vtk DataFile Version 5.1
vtk output
ASCII
DATASET POLYDATA
POINTS 77 double
9.95 51.53 0 23.78 38 0 -4.83 56 0 
-0.37 39.46 0 24.7 60.45 0 18.08 59.33 0 
21.25 48.73 0 9.95 51.53 0 23.78 38 0 
-4.83 56 0 -0.37 39.46 0 24.7 60.45 0 
18.08 59.33 0 21.25 48.73 0 9.95 51.53 1 
23.78 38 1 -4.83 56 1 -0.37 39.46 1 
24.7 60.45 1 18.08 59.33 1 21.25 48.73 1 
9.95 51.53 2 23.78 38 2 -4.83 56 2 
-0.37 39.46 2 24.7 60.45 2 18.08 59.33 2 
21.25 48.73 2 9.95 51.53 3 23.78 38 3 
-4.83 56 3 -0.37 39.46 3 24.7 60.45 3 
18.08 59.33 3 21.25 48.73 3 9.95 51.53 4 
23.78 38 4 -4.83 56 4 -0.37 39.46 4 
24.7 60.45 4 18.08 59.33 4 21.25 48.73 4 
9.95 51.53 5 23.78 38 5 -4.83 56 5 
-0.37 39.46 5 24.7 60.45 5 18.08 59.33 5 
21.25 48.73 5 9.95 51.53 6 23.78 38 6 
-4.83 56 6 -0.37 39.46 6 24.7 60.45 6 
18.08 59.33 6 21.25 48.73 6 9.95 51.53 7 
23.78 38 7 -4.83 56 7 -0.37 39.46 7 
24.7 60.45 7 18.08 59.33 7 21.25 48.73 7 
9.95 51.53 8 23.78 38 8 -4.83 56 8 
-0.37 39.46 8 24.7 60.45 8 18.08 59.33 8 
21.25 48.73 8 9.95 51.53 9 23.78 38 9 
-4.83 56 9 -0.37 39.46 9 24.7 60.45 9 
18.08 59.33 9 21.25 48.73 9 
VERTICES 78 77
OFFSETS vtktypeint64
0 1 2 3 4 5 6 7 8 
9 10 11 12 13 14 15 16 17 
18 19 20 21 22 23 24 25 26 
27 28 29 30 31 32 33 34 35 
36 37 38 39 40 41 42 43 44 
45 46 47 48 49 50 51 52 53 
54 55 56 57 58 59 60 61 62 
63 64 65 66 67 68 69 70 71 
72 73 74 75 76 77 
CONNECTIVITY vtktypeint64
0 1 2 3 4 5 6 7 8 
9 10 11 12 13 14 15 16 17 
18 19 20 21 22 23 24 25 26 
27 28 29 30 31 32 33 34 35 
36 37 38 39 40 41 42 43 44 
45 46 47 48 49 50 51 52 53 
54 55 56 57 58 59 60 61 62 
63 64 65 66 67 68 69 70 71 
72 73 74 75 76 
POINT_DATA 77
SCALARS I131 double
LOOKUP_TABLE default
0.00091 0.01 0.0005 0 0 0.000364 0.0002 0.00091 0.01 
0.0005 0 0 0.000364 0.0002 0.00091 0.01 0.0005 0 
0 0.000364 0.0002 0.00091 0.01 0.0005 0 0 0.000364 
0.0002 0.00091 0.01 0.0005 0 0 0.000364 0.0002 0.00091 
0.01 0.0005 0 0 0.000364 0.0002 0.00091 0.01 0.0005 
0 0 0.000364 0.0002 0.00091 0.01 0.0005 0 0 
0.000364 0.0002 0.00091 0.01 0.0005 0 0 0.000364 0.0002 
0.00091 0.01 0.0005 0 0 0.000364 0.0002 0.00091 0.01 
0.0005 0 0 0.000364 0.0002 
FIELD FieldData 2
CS134 1 77 double
0.00029 0 0.0005 0 0.00043 0.000173 0.0006 0.00029 0 
0.0005 0 0.00043 0.000173 0.0006 0.00029 0 0.0005 0 
0.00043 0.000173 0.0006 0.00029 0 0.0005 0 0.00043 0.000173 
0.0006 0.00029 0 0.0005 0 0.00043 0.000173 0.0006 0.00029 
0 0.0005 0 0.00043 0.000173 0.0006 0.00029 0 0.0005 
0 0.00043 0.000173 0.0006 0.00029 0 0.0005 0 0.00043 
0.000173 0.0006 0.00029 0 0.0005 0 0.00043 0.000173 0.0006 
0.00029 0 0.0005 0 0.00043 0.000173 0.0006 0.00029 0 
0.0005 0 0.00043 0.000173 0.0006 
CS137 1 77 double
0.00068 0 0.0011 0.0084 0.00073 0.000308 0.0012 0.00068 0 
0.0011 0.0084 0.00073 0.000308 0.0012 0.00068 0 0.0011 0.0084 
0.00073 0.000308 0.0012 0.00068 0 0.0011 0.0084 0.00073 0.000308 
0.0012 0.00068 0 0.0011 0.0084 0.00073 0.000308 0.0012 0.00068 
0 0.0011 0.0084 0.00073 0.000308 0.0012 0.00068 0 0.0011 
0.0084 0.00073 0.000308 0.0012 0.00068 0 0.0011 0.0084 0.00073 
0.000308 0.0012 0.00068 0 0.0011 0.0084 0.00073 0.000308 0.0012 
0.00068 0 0.0011 0.0084 0.00073 0.000308 0.0012 0.00068 0 
0.0011 0.0084 0.00073 0.000308 0.0012 
