# vtk DataFile Version 5.1
vtk output
ASCII
DATASET POLYDATA
POINTS 99 double
12.07 55.7 0 9.95 51.53 0 4.38 52 0 
23.78 38 0 5.12 51.18 0 12 57.75 0 
13.92 56.82 0 18.08 59.33 0 20.25 63.83 0 
12.07 55.7 0 9.95 51.53 0 4.38 52 0 
23.78 38 0 5.12 51.18 0 12 57.75 0 
13.92 56.82 0 18.08 59.33 0 20.25 63.83 0 
12.07 55.7 1 9.95 51.53 1 4.38 52 1 
23.78 38 1 5.12 51.18 1 12 57.75 1 
13.92 56.82 1 18.08 59.33 1 20.25 63.83 1 
12.07 55.7 2 9.95 51.53 2 4.38 52 2 
23.78 38 2 5.12 51.18 2 12 57.75 2 
13.92 56.82 2 18.08 59.33 2 20.25 63.83 2 
12.07 55.7 3 9.95 51.53 3 4.38 52 3 
23.78 38 3 5.12 51.18 3 12 57.75 3 
13.92 56.82 3 18.08 59.33 3 20.25 63.83 3 
12.07 55.7 4 9.95 51.53 4 4.38 52 4 
23.78 38 4 5.12 51.18 4 12 57.75 4 
13.92 56.82 4 18.08 59.33 4 20.25 63.83 4 
12.07 55.7 5 9.95 51.53 5 4.38 52 5 
23.78 38 5 5.12 51.18 5 12 57.75 5 
13.92 56.82 5 18.08 59.33 5 20.25 63.83 5 
12.07 55.7 6 9.95 51.53 6 4.38 52 6 
23.78 38 6 5.12 51.18 6 12 57.75 6 
13.92 56.82 6 18.08 59.33 6 20.25 63.83 6 
12.07 55.7 7 9.95 51.53 7 4.38 52 7 
23.78 38 7 5.12 51.18 7 12 57.75 7 
13.92 56.82 7 18.08 59.33 7 20.25 63.83 7 
12.07 55.7 8 9.95 51.53 8 4.38 52 8 
23.78 38 8 5.12 51.18 8 12 57.75 8 
13.92 56.82 8 18.08 59.33 8 20.25 63.83 8 
12.07 55.7 9 9.95 51.53 9 4.38 52 9 
23.78 38 9 5.12 51.18 9 12 57.75 9 
13.92 56.82 9 18.08 59.33 9 20.25 63.83 9 

VERTICES 100 99
OFFSETS vtktypeint64
0 1 2 3 4 5 6 7 8 
9 10 11 12 13 14 15 16 17 
18 19 20 21 22 23 24 25 26 
27 28 29 30 31 32 33 34 35 
36 37 38 39 40 41 42 43 44 
45 46 47 48 49 50 51 52 53 
54 55 56 57 58 59 60 61 62 
63 64 65 66 67 68 69 70 71 
72 73 74 75 76 77 78 79 80 
81 82 83 84 85 86 87 88 89 
90 91 92 93 94 95 96 97 98 
99 
CONNECTIVITY vtktypeint64
0 1 2 3 4 5 6 7 8 
9 10 11 12 13 14 15 16 17 
18 19 20 21 22 23 24 25 26 
27 28 29 30 31 32 33 34 35 
36 37 38 39 40 41 42 43 44 
45 46 47 48 49 50 51 52 53 
54 55 56 57 58 59 60 61 62 
63 64 65 66 67 68 69 70 71 
72 73 74 75 76 77 78 79 80 
81 82 83 84 85 86 87 88 89 
90 91 92 93 94 95 96 97 98 

POINT_DATA 99
SCALARS I131 double
LOOKUP_TABLE default
0.00281 0.0021 0 0.01 0.003 0.00119 0.00169 0.00216 0.00089 
0.00281 0.0021 0 0.01 0.003 0.00119 0.00169 0.00216 0.00089 
0.00281 0.0021 0 0.01 0.003 0.00119 0.00169 0.00216 0.00089 
0.00281 0.0021 0 0.01 0.003 0.00119 0.00169 0.00216 0.00089 
0.00281 0.0021 0 0.01 0.003 0.00119 0.00169 0.00216 0.00089 
0.00281 0.0021 0 0.01 0.003 0.00119 0.00169 0.00216 0.00089 
0.00281 0.0021 0 0.01 0.003 0.00119 0.00169 0.00216 0.00089 
0.00281 0.0021 0 0.01 0.003 0.00119 0.00169 0.00216 0.00089 
0.00281 0.0021 0 0.01 0.003 0.00119 0.00169 0.00216 0.00089 
0.00281 0.0021 0 0.01 0.003 0.00119 0.00169 0.00216 0.00089 
0.00281 0.0021 0 0.01 0.003 0.00119 0.00169 0.00216 0.00089 

FIELD FieldData 2
CS134 1 99 double
0.001022 0.0008 0.005 0 0.00091 0.00099 0.000763 0.00138 0.000582 
0.001022 0.0008 0.005 0 0.00091 0.00099 0.000763 0.00138 0.000582 
0.001022 0.0008 0.005 0 0.00091 0.00099 0.000763 0.00138 0.000582 
0.001022 0.0008 0.005 0 0.00091 0.00099 0.000763 0.00138 0.000582 
0.001022 0.0008 0.005 0 0.00091 0.00099 0.000763 0.00138 0.000582 
0.001022 0.0008 0.005 0 0.00091 0.00099 0.000763 0.00138 0.000582 
0.001022 0.0008 0.005 0 0.00091 0.00099 0.000763 0.00138 0.000582 
0.001022 0.0008 0.005 0 0.00091 0.00099 0.000763 0.00138 0.000582 
0.001022 0.0008 0.005 0 0.00091 0.00099 0.000763 0.00138 0.000582 
0.001022 0.0008 0.005 0 0.00091 0.00099 0.000763 0.00138 0.000582 
0.001022 0.0008 0.005 0 0.00091 0.00099 0.000763 0.00138 0.000582 

CS137 1 99 double
0.001773 0.0015 0.006 0 0.00179 0.00174 0.00137 0.00236 0.001 
0.001773 0.0015 0.006 0 0.00179 0.00174 0.00137 0.00236 0.001 
0.001773 0.0015 0.006 0 0.00179 0.00174 0.00137 0.00236 0.001 
0.001773 0.0015 0.006 0 0.00179 0.00174 0.00137 0.00236 0.001 
0.001773 0.0015 0.006 0 0.00179 0.00174 0.00137 0.00236 0.001 
0.001773 0.0015 0.006 0 0.00179 0.00174 0.00137 0.00236 0.001 
0.001773 0.0015 0.006 0 0.00179 0.00174 0.00137 0.00236 0.001 
0.001773 0.0015 0.006 0 0.00179 0.00174 0.00137 0.00236 0.001 
0.001773 0.0015 0.006 0 0.00179 0.00174 0.00137 0.00236 0.001 
0.001773 0.0015 0.006 0 0.00179 0.00174 0.00137 0.00236 0.001 
0.001773 0.0015 0.006 0 0.00179 0.00174 0.00137 0.00236 0.001 

