# vtk DataFile Version 5.1
vtk output
ASCII
DATASET POLYDATA
POINTS 44 double
12.07 55.7 0 9.95 51.53 0 23.78 38 0 
18.08 59.33 0 12.07 55.7 0 9.95 51.53 0 
23.78 38 0 18.08 59.33 0 12.07 55.7 1 
9.95 51.53 1 23.78 38 1 18.08 59.33 1 
12.07 55.7 2 9.95 51.53 2 23.78 38 2 
18.08 59.33 2 12.07 55.7 3 9.95 51.53 3 
23.78 38 3 18.08 59.33 3 12.07 55.7 4 
9.95 51.53 4 23.78 38 4 18.08 59.33 4 
12.07 55.7 5 9.95 51.53 5 23.78 38 5 
18.08 59.33 5 12.07 55.7 6 9.95 51.53 6 
23.78 38 6 18.08 59.33 6 12.07 55.7 7 
9.95 51.53 7 23.78 38 7 18.08 59.33 7 
12.07 55.7 8 9.95 51.53 8 23.78 38 8 
18.08 59.33 8 12.07 55.7 9 9.95 51.53 9 
23.78 38 9 18.08 59.33 9 
VERTICES 45 44
OFFSETS vtktypeint64
0 1 2 3 4 5 6 7 8 
9 10 11 12 13 14 15 16 17 
18 19 20 21 22 23 24 25 26 
27 28 29 30 31 32 33 34 35 
36 37 38 39 40 41 42 43 44 

CONNECTIVITY vtktypeint64
0 1 2 3 4 5 6 7 8 
9 10 11 12 13 14 15 16 17 
18 19 20 21 22 23 24 25 26 
27 28 29 30 31 32 33 34 35 
36 37 38 39 40 41 42 43 
POINT_DATA 44
SCALARS I131 double
LOOKUP_TABLE default
0.000517 0.0031 0.01 0.00102 0.000517 0.0031 0.01 0.00102 0.000517 
0.0031 0.01 0.00102 0.000517 0.0031 0.01 0.00102 0.000517 0.0031 
0.01 0.00102 0.000517 0.0031 0.01 0.00102 0.000517 0.0031 0.01 
0.00102 0.000517 0.0031 0.01 0.00102 0.000517 0.0031 0.01 0.00102 
0.000517 0.0031 0.01 0.00102 0.000517 0.0031 0.01 0.00102 
FIELD FieldData 2
CS134 1 44 double
0.000315 0.0013 0 0.0005 0.000315 0.0013 0 0.0005 0.000315 
0.0013 0 0.0005 0.000315 0.0013 0 0.0005 0.000315 0.0013 
0 0.0005 0.000315 0.0013 0 0.0005 0.000315 0.0013 0 
0.0005 0.000315 0.0013 0 0.0005 0.000315 0.0013 0 0.0005 
0.000315 0.0013 0 0.0005 0.000315 0.0013 0 0.0005 
CS137 1 44 double
0.000594 0.0024 0.02 0.000877 0.000594 0.0024 0.02 0.000877 0.000594 
0.0024 0.02 0.000877 0.000594 0.0024 0.02 0.000877 0.000594 0.0024 
0.02 0.000877 0.000594 0.0024 0.02 0.000877 0.000594 0.0024 0.02 
0.000877 0.000594 0.0024 0.02 0.000877 0.000594 0.0024 0.02 0.000877 
0.000594 0.0024 0.02 0.000877 0.000594 0.0024 0.02 0.000877 
