# vtk DataFile Version 5.1
vtk output
ASCII
DATASET POLYDATA
POINTS 352 double
12.07 55.7 0 7.87 48 0 9.95 51.53 0 
0.25 47.15 0 4.81 50.1 0 4.8 44.63 0 
2.31 51 0 12.3 42.03 0 16.63 40.17 0 
16.63 40.17 0 5.18 52.11 0 23.78 38 0 
22.95 40.59 0 -2.45 51.69 0 -4.83 56 0 
4.33 50.78 0 5.12 51.18 0 9.78 47.51 0 
11.41 47.28 0 14.33 46.63 0 14.33 46.63 0 
14.33 46.63 0 13.05 47.9 0 24.7 60.45 0 
9.8 59.9 0 12 57.75 0 13.92 56.82 0 
13.92 56.82 0 14.67 63.17 0 18.08 59.33 0 
20.25 63.83 0 21.25 48.73 0 12.07 55.7 0 
7.87 48 0 9.95 51.53 0 0.25 47.15 0 
4.81 50.1 0 4.8 44.63 0 2.31 51 0 
12.3 42.03 0 16.63 40.17 0 16.63 40.17 0 
5.18 52.11 0 23.78 38 0 22.95 40.59 0 
-2.45 51.69 0 -4.83 56 0 4.33 50.78 0 
5.12 51.18 0 9.78 47.51 0 11.41 47.28 0 
14.33 46.63 0 14.33 46.63 0 14.33 46.63 0 
13.05 47.9 0 24.7 60.45 0 9.8 59.9 0 
12 57.75 0 13.92 56.82 0 13.92 56.82 0 
14.67 63.17 0 18.08 59.33 0 20.25 63.83 0 
21.25 48.73 0 12.07 55.7 1 7.87 48 1 
9.95 51.53 1 0.25 47.15 1 4.81 50.1 1 
4.8 44.63 1 2.31 51 1 12.3 42.03 1 
16.63 40.17 1 16.63 40.17 1 5.18 52.11 1 
23.78 38 1 22.95 40.59 1 -2.45 51.69 1 
-4.83 56 1 4.33 50.78 1 5.12 51.18 1 
9.78 47.51 1 11.41 47.28 1 14.33 46.63 1 
14.33 46.63 1 14.33 46.63 1 13.05 47.9 1 
24.7 60.45 1 9.8 59.9 1 12 57.75 1 
13.92 56.82 1 13.92 56.82 1 14.67 63.17 1 
18.08 59.33 1 20.25 63.83 1 21.25 48.73 1 
12.07 55.7 2 7.87 48 2 9.95 51.53 2 
0.25 47.15 2 4.81 50.1 2 4.8 44.63 2 
2.31 51 2 12.3 42.03 2 16.63 40.17 2 
16.63 40.17 2 5.18 52.11 2 23.78 38 2 
22.95 40.59 2 -2.45 51.69 2 -4.83 56 2 
4.33 50.78 2 5.12 51.18 2 9.78 47.51 2 
11.41 47.28 2 14.33 46.63 2 14.33 46.63 2 
14.33 46.63 2 13.05 47.9 2 24.7 60.45 2 
9.8 59.9 2 12 57.75 2 13.92 56.82 2 
13.92 56.82 2 14.67 63.17 2 18.08 59.33 2 
20.25 63.83 2 21.25 48.73 2 12.07 55.7 3 
7.87 48 3 9.95 51.53 3 0.25 47.15 3 
4.81 50.1 3 4.8 44.63 3 2.31 51 3 
12.3 42.03 3 16.63 40.17 3 16.63 40.17 3 
5.18 52.11 3 23.78 38 3 22.95 40.59 3 
-2.45 51.69 3 -4.83 56 3 4.33 50.78 3 
5.12 51.18 3 9.78 47.51 3 11.41 47.28 3 
14.33 46.63 3 14.33 46.63 3 14.33 46.63 3 
13.05 47.9 3 24.7 60.45 3 9.8 59.9 3 
12 57.75 3 13.92 56.82 3 13.92 56.82 3 
14.67 63.17 3 18.08 59.33 3 20.25 63.83 3 
21.25 48.73 3 12.07 55.7 4 7.87 48 4 
9.95 51.53 4 0.25 47.15 4 4.81 50.1 4 
4.8 44.63 4 2.31 51 4 12.3 42.03 4 
16.63 40.17 4 16.63 40.17 4 5.18 52.11 4 
23.78 38 4 22.95 40.59 4 -2.45 51.69 4 
-4.83 56 4 4.33 50.78 4 5.12 51.18 4 
9.78 47.51 4 11.41 47.28 4 14.33 46.63 4 
14.33 46.63 4 14.33 46.63 4 13.05 47.9 4 
24.7 60.45 4 9.8 59.9 4 12 57.75 4 
13.92 56.82 4 13.92 56.82 4 14.67 63.17 4 
18.08 59.33 4 20.25 63.83 4 21.25 48.73 4 
12.07 55.7 5 7.87 48 5 9.95 51.53 5 
0.25 47.15 5 4.81 50.1 5 4.8 44.63 5 
2.31 51 5 12.3 42.03 5 16.63 40.17 5 
16.63 40.17 5 5.18 52.11 5 23.78 38 5 
22.95 40.59 5 -2.45 51.69 5 -4.83 56 5 
4.33 50.78 5 5.12 51.18 5 9.78 47.51 5 
11.41 47.28 5 14.33 46.63 5 14.33 46.63 5 
14.33 46.63 5 13.05 47.9 5 24.7 60.45 5 
9.8 59.9 5 12 57.75 5 13.92 56.82 5 
13.92 56.82 5 14.67 63.17 5 18.08 59.33 5 
20.25 63.83 5 21.25 48.73 5 12.07 55.7 6 
7.87 48 6 9.95 51.53 6 0.25 47.15 6 
4.81 50.1 6 4.8 44.63 6 2.31 51 6 
12.3 42.03 6 16.63 40.17 6 16.63 40.17 6 
5.18 52.11 6 23.78 38 6 22.95 40.59 6 
-2.45 51.69 6 -4.83 56 6 4.33 50.78 6 
5.12 51.18 6 9.78 47.51 6 11.41 47.28 6 
14.33 46.63 6 14.33 46.63 6 14.33 46.63 6 
13.05 47.9 6 24.7 60.45 6 9.8 59.9 6 
12 57.75 6 13.92 56.82 6 13.92 56.82 6 
14.67 63.17 6 18.08 59.33 6 20.25 63.83 6 
21.25 48.73 6 12.07 55.7 7 7.87 48 7 
9.95 51.53 7 0.25 47.15 7 4.81 50.1 7 
4.8 44.63 7 2.31 51 7 12.3 42.03 7 
16.63 40.17 7 16.63 40.17 7 5.18 52.11 7 
23.78 38 7 22.95 40.59 7 -2.45 51.69 7 
-4.83 56 7 4.33 50.78 7 5.12 51.18 7 
9.78 47.51 7 11.41 47.28 7 14.33 46.63 7 
14.33 46.63 7 14.33 46.63 7 13.05 47.9 7 
24.7 60.45 7 9.8 59.9 7 12 57.75 7 
13.92 56.82 7 13.92 56.82 7 14.67 63.17 7 
18.08 59.33 7 20.25 63.83 7 21.25 48.73 7 
12.07 55.7 8 7.87 48 8 9.95 51.53 8 
0.25 47.15 8 4.81 50.1 8 4.8 44.63 8 
2.31 51 8 12.3 42.03 8 16.63 40.17 8 
16.63 40.17 8 5.18 52.11 8 23.78 38 8 
22.95 40.59 8 -2.45 51.69 8 -4.83 56 8 
4.33 50.78 8 5.12 51.18 8 9.78 47.51 8 
11.41 47.28 8 14.33 46.63 8 14.33 46.63 8 
14.33 46.63 8 13.05 47.9 8 24.7 60.45 8 
9.8 59.9 8 12 57.75 8 13.92 56.82 8 
13.92 56.82 8 14.67 63.17 8 18.08 59.33 8 
20.25 63.83 8 21.25 48.73 8 12.07 55.7 9 
7.87 48 9 9.95 51.53 9 0.25 47.15 9 
4.81 50.1 9 4.8 44.63 9 2.31 51 9 
12.3 42.03 9 16.63 40.17 9 16.63 40.17 9 
5.18 52.11 9 23.78 38 9 22.95 40.59 9 
-2.45 51.69 9 -4.83 56 9 4.33 50.78 9 
5.12 51.18 9 9.78 47.51 9 11.41 47.28 9 
14.33 46.63 9 14.33 46.63 9 14.33 46.63 9 
13.05 47.9 9 24.7 60.45 9 9.8 59.9 9 
12 57.75 9 13.92 56.82 9 13.92 56.82 9 
14.67 63.17 9 18.08 59.33 9 20.25 63.83 9 
21.25 48.73 9 
VERTICES 353 352
OFFSETS vtktypeint64
0 1 2 3 4 5 6 7 8 
9 10 11 12 13 14 15 16 17 
18 19 20 21 22 23 24 25 26 
27 28 29 30 31 32 33 34 35 
36 37 38 39 40 41 42 43 44 
45 46 47 48 49 50 51 52 53 
54 55 56 57 58 59 60 61 62 
63 64 65 66 67 68 69 70 71 
72 73 74 75 76 77 78 79 80 
81 82 83 84 85 86 87 88 89 
90 91 92 93 94 95 96 97 98 
99 100 101 102 103 104 105 106 107 
108 109 110 111 112 113 114 115 116 
117 118 119 120 121 122 123 124 125 
126 127 128 129 130 131 132 133 134 
135 136 137 138 139 140 141 142 143 
144 145 146 147 148 149 150 151 152 
153 154 155 156 157 158 159 160 161 
162 163 164 165 166 167 168 169 170 
171 172 173 174 175 176 177 178 179 
180 181 182 183 184 185 186 187 188 
189 190 191 192 193 194 195 196 197 
198 199 200 201 202 203 204 205 206 
207 208 209 210 211 212 213 214 215 
216 217 218 219 220 221 222 223 224 
225 226 227 228 229 230 231 232 233 
234 235 236 237 238 239 240 241 242 
243 244 245 246 247 248 249 250 251 
252 253 254 255 256 257 258 259 260 
261 262 263 264 265 266 267 268 269 
270 271 272 273 274 275 276 277 278 
279 280 281 282 283 284 285 286 287 
288 289 290 291 292 293 294 295 296 
297 298 299 300 301 302 303 304 305 
306 307 308 309 310 311 312 313 314 
315 316 317 318 319 320 321 322 323 
324 325 326 327 328 329 330 331 332 
333 334 335 336 337 338 339 340 341 
342 343 344 345 346 347 348 349 350 
351 352 
CONNECTIVITY vtktypeint64
0 1 2 3 4 5 6 7 8 
9 10 11 12 13 14 15 16 17 
18 19 20 21 22 23 24 25 26 
27 28 29 30 31 32 33 34 35 
36 37 38 39 40 41 42 43 44 
45 46 47 48 49 50 51 52 53 
54 55 56 57 58 59 60 61 62 
63 64 65 66 67 68 69 70 71 
72 73 74 75 76 77 78 79 80 
81 82 83 84 85 86 87 88 89 
90 91 92 93 94 95 96 97 98 
99 100 101 102 103 104 105 106 107 
108 109 110 111 112 113 114 115 116 
117 118 119 120 121 122 123 124 125 
126 127 128 129 130 131 132 133 134 
135 136 137 138 139 140 141 142 143 
144 145 146 147 148 149 150 151 152 
153 154 155 156 157 158 159 160 161 
162 163 164 165 166 167 168 169 170 
171 172 173 174 175 176 177 178 179 
180 181 182 183 184 185 186 187 188 
189 190 191 192 193 194 195 196 197 
198 199 200 201 202 203 204 205 206 
207 208 209 210 211 212 213 214 215 
216 217 218 219 220 221 222 223 224 
225 226 227 228 229 230 231 232 233 
234 235 236 237 238 239 240 241 242 
243 244 245 246 247 248 249 250 251 
252 253 254 255 256 257 258 259 260 
261 262 263 264 265 266 267 268 269 
270 271 272 273 274 275 276 277 278 
279 280 281 282 283 284 285 286 287 
288 289 290 291 292 293 294 295 296 
297 298 299 300 301 302 303 304 305 
306 307 308 309 310 311 312 313 314 
315 316 317 318 319 320 321 322 323 
324 325 326 327 328 329 330 331 332 
333 334 335 336 337 338 339 340 341 
342 343 344 345 346 347 348 349 350 
351 
POINT_DATA 352
SCALARS I131 double
LOOKUP_TABLE default
0.003245 0.0025 0.0072 0.0052 0.005 0.0046 0.006 0.008 0.014 
0.011 0.005 0.21 0.04 0.0016 0.0024 0.0046 0.0056 0.00629 
0.011285 0.016095 0.018796 0.018056 0.006965 0 0 0.00254 0.00457 
0.0042 0.00279 0.00374 0.00265 0.025 0.003245 0.0025 0.0072 0.0052 
0.005 0.0046 0.006 0.008 0.014 0.011 0.005 0.21 0.04 
0.0016 0.0024 0.0046 0.0056 0.00629 0.011285 0.016095 0.018796 0.018056 
0.006965 0 0 0.00254 0.00457 0.0042 0.00279 0.00374 0.00265 
0.025 0.003245 0.0025 0.0072 0.0052 0.005 0.0046 0.006 0.008 
0.014 0.011 0.005 0.21 0.04 0.0016 0.0024 0.0046 0.0056 
0.00629 0.011285 0.016095 0.018796 0.018056 0.006965 0 0 0.00254 
0.00457 0.0042 0.00279 0.00374 0.00265 0.025 0.003245 0.0025 0.0072 
0.0052 0.005 0.0046 0.006 0.008 0.014 0.011 0.005 0.21 
0.04 0.0016 0.0024 0.0046 0.0056 0.00629 0.011285 0.016095 0.018796 
0.018056 0.006965 0 0 0.00254 0.00457 0.0042 0.00279 0.00374 
0.00265 0.025 0.003245 0.0025 0.0072 0.0052 0.005 0.0046 0.006 
0.008 0.014 0.011 0.005 0.21 0.04 0.0016 0.0024 0.0046 
0.0056 0.00629 0.011285 0.016095 0.018796 0.018056 0.006965 0 0 
0.00254 0.00457 0.0042 0.00279 0.00374 0.00265 0.025 0.003245 0.0025 
0.0072 0.0052 0.005 0.0046 0.006 0.008 0.014 0.011 0.005 
0.21 0.04 0.0016 0.0024 0.0046 0.0056 0.00629 0.011285 0.016095 
0.018796 0.018056 0.006965 0 0 0.00254 0.00457 0.0042 0.00279 
0.00374 0.00265 0.025 0.003245 0.0025 0.0072 0.0052 0.005 0.0046 
0.006 0.008 0.014 0.011 0.005 0.21 0.04 0.0016 0.0024 
0.0046 0.0056 0.00629 0.011285 0.016095 0.018796 0.018056 0.006965 0 
0 0.00254 0.00457 0.0042 0.00279 0.00374 0.00265 0.025 0.003245 
0.0025 0.0072 0.0052 0.005 0.0046 0.006 0.008 0.014 0.011 
0.005 0.21 0.04 0.0016 0.0024 0.0046 0.0056 0.00629 0.011285 
0.016095 0.018796 0.018056 0.006965 0 0 0.00254 0.00457 0.0042 
0.00279 0.00374 0.00265 0.025 0.003245 0.0025 0.0072 0.0052 0.005 
0.0046 0.006 0.008 0.014 0.011 0.005 0.21 0.04 0.0016 
0.0024 0.0046 0.0056 0.00629 0.011285 0.016095 0.018796 0.018056 0.006965 
0 0 0.00254 0.00457 0.0042 0.00279 0.00374 0.00265 0.025 
0.003245 0.0025 0.0072 0.0052 0.005 0.0046 0.006 0.008 0.014 
0.011 0.005 0.21 0.04 0.0016 0.0024 0.0046 0.0056 0.00629 
0.011285 0.016095 0.018796 0.018056 0.006965 0 0 0.00254 0.00457 
0.0042 0.00279 0.00374 0.00265 0.025 0.003245 0.0025 0.0072 0.0052 
0.005 0.0046 0.006 0.008 0.014 0.011 0.005 0.21 0.04 
0.0016 0.0024 0.0046 0.0056 0.00629 0.011285 0.016095 0.018796 0.018056 
0.006965 0 0 0.00254 0.00457 0.0042 0.00279 0.00374 0.00265 
0.025 
FIELD FieldData 2
CS134 1 352 double
0.000487 0 0.0007 0 0 0 0 0.001 0.002 
0.002 0 0 0 0.0006 0.0008 0.0004 0.0004 0.001058 
0.001628 0.002686 0.002767 0.002319 0.000998 0.00049 0 0.000362 0.000473 
0.000398 0.000304 0.000385 0.000839 0.0031 0.000487 0 0.0007 0 
0 0 0 0.001 0.002 0.002 0 0 0 
0.0006 0.0008 0.0004 0.0004 0.001058 0.001628 0.002686 0.002767 0.002319 
0.000998 0.00049 0 0.000362 0.000473 0.000398 0.000304 0.000385 0.000839 
0.0031 0.000487 0 0.0007 0 0 0 0 0.001 
0.002 0.002 0 0 0 0.0006 0.0008 0.0004 0.0004 
0.001058 0.001628 0.002686 0.002767 0.002319 0.000998 0.00049 0 0.000362 
0.000473 0.000398 0.000304 0.000385 0.000839 0.0031 0.000487 0 0.0007 
0 0 0 0 0.001 0.002 0.002 0 0 
0 0.0006 0.0008 0.0004 0.0004 0.001058 0.001628 0.002686 0.002767 
0.002319 0.000998 0.00049 0 0.000362 0.000473 0.000398 0.000304 0.000385 
0.000839 0.0031 0.000487 0 0.0007 0 0 0 0 
0.001 0.002 0.002 0 0 0 0.0006 0.0008 0.0004 
0.0004 0.001058 0.001628 0.002686 0.002767 0.002319 0.000998 0.00049 0 
0.000362 0.000473 0.000398 0.000304 0.000385 0.000839 0.0031 0.000487 0 
0.0007 0 0 0 0 0.001 0.002 0.002 0 
0 0 0.0006 0.0008 0.0004 0.0004 0.001058 0.001628 0.002686 
0.002767 0.002319 0.000998 0.00049 0 0.000362 0.000473 0.000398 0.000304 
0.000385 0.000839 0.0031 0.000487 0 0.0007 0 0 0 
0 0.001 0.002 0.002 0 0 0 0.0006 0.0008 
0.0004 0.0004 0.001058 0.001628 0.002686 0.002767 0.002319 0.000998 0.00049 
0 0.000362 0.000473 0.000398 0.000304 0.000385 0.000839 0.0031 0.000487 
0 0.0007 0 0 0 0 0.001 0.002 0.002 
0 0 0 0.0006 0.0008 0.0004 0.0004 0.001058 0.001628 
0.002686 0.002767 0.002319 0.000998 0.00049 0 0.000362 0.000473 0.000398 
0.000304 0.000385 0.000839 0.0031 0.000487 0 0.0007 0 0 
0 0 0.001 0.002 0.002 0 0 0 0.0006 
0.0008 0.0004 0.0004 0.001058 0.001628 0.002686 0.002767 0.002319 0.000998 
0.00049 0 0.000362 0.000473 0.000398 0.000304 0.000385 0.000839 0.0031 
0.000487 0 0.0007 0 0 0 0 0.001 0.002 
0.002 0 0 0 0.0006 0.0008 0.0004 0.0004 0.001058 
0.001628 0.002686 0.002767 0.002319 0.000998 0.00049 0 0.000362 0.000473 
0.000398 0.000304 0.000385 0.000839 0.0031 0.000487 0 0.0007 0 
0 0 0 0.001 0.002 0.002 0 0 0 
0.0006 0.0008 0.0004 0.0004 0.001058 0.001628 0.002686 0.002767 0.002319 
0.000998 0.00049 0 0.000362 0.000473 0.000398 0.000304 0.000385 0.000839 
0.0031 
CS137 1 352 double
0.000881 0.006 0.0016 0 0.004 0.0011 0 0.001 0.003 
0.004 0.03 0 0.02 0.001 0.0016 0.0005 0.0008 0.001369 
0.002183 0.005402 0.005143 0.002146 0.002665 0.00094 0.0035 0.000687 0.000842 
0.000708 0.000556 0.000637 0.00146 0.0061 0.000881 0.006 0.0016 0 
0.004 0.0011 0 0.001 0.003 0.004 0.03 0 0.02 
0.001 0.0016 0.0005 0.0008 0.001369 0.002183 0.005402 0.005143 0.002146 
0.002665 0.00094 0.0035 0.000687 0.000842 0.000708 0.000556 0.000637 0.00146 
0.0061 0.000881 0.006 0.0016 0 0.004 0.0011 0 0.001 
0.003 0.004 0.03 0 0.02 0.001 0.0016 0.0005 0.0008 
0.001369 0.002183 0.005402 0.005143 0.002146 0.002665 0.00094 0.0035 0.000687 
0.000842 0.000708 0.000556 0.000637 0.00146 0.0061 0.000881 0.006 0.0016 
0 0.004 0.0011 0 0.001 0.003 0.004 0.03 0 
0.02 0.001 0.0016 0.0005 0.0008 0.001369 0.002183 0.005402 0.005143 
0.002146 0.002665 0.00094 0.0035 0.000687 0.000842 0.000708 0.000556 0.000637 
0.00146 0.0061 0.000881 0.006 0.0016 0 0.004 0.0011 0 
0.001 0.003 0.004 0.03 0 0.02 0.001 0.0016 0.0005 
0.0008 0.001369 0.002183 0.005402 0.005143 0.002146 0.002665 0.00094 0.0035 
0.000687 0.000842 0.000708 0.000556 0.000637 0.00146 0.0061 0.000881 0.006 
0.0016 0 0.004 0.0011 0 0.001 0.003 0.004 0.03 
0 0.02 0.001 0.0016 0.0005 0.0008 0.001369 0.002183 0.005402 
0.005143 0.002146 0.002665 0.00094 0.0035 0.000687 0.000842 0.000708 0.000556 
0.000637 0.00146 0.0061 0.000881 0.006 0.0016 0 0.004 0.0011 
0 0.001 0.003 0.004 0.03 0 0.02 0.001 0.0016 
0.0005 0.0008 0.001369 0.002183 0.005402 0.005143 0.002146 0.002665 0.00094 
0.0035 0.000687 0.000842 0.000708 0.000556 0.000637 0.00146 0.0061 0.000881 
0.006 0.0016 0 0.004 0.0011 0 0.001 0.003 0.004 
0.03 0 0.02 0.001 0.0016 0.0005 0.0008 0.001369 0.002183 
0.005402 0.005143 0.002146 0.002665 0.00094 0.0035 0.000687 0.000842 0.000708 
0.000556 0.000637 0.00146 0.0061 0.000881 0.006 0.0016 0 0.004 
0.0011 0 0.001 0.003 0.004 0.03 0 0.02 0.001 
0.0016 0.0005 0.0008 0.001369 0.002183 0.005402 0.005143 0.002146 0.002665 
0.00094 0.0035 0.000687 0.000842 0.000708 0.000556 0.000637 0.00146 0.0061 
0.000881 0.006 0.0016 0 0.004 0.0011 0 0.001 0.003 
0.004 0.03 0 0.02 0.001 0.0016 0.0005 0.0008 0.001369 
0.002183 0.005402 0.005143 0.002146 0.002665 0.00094 0.0035 0.000687 0.000842 
0.000708 0.000556 0.000637 0.00146 0.0061 0.000881 0.006 0.0016 0 
0.004 0.0011 0 0.001 0.003 0.004 0.03 0 0.02 
0.001 0.0016 0.0005 0.0008 0.001369 0.002183 0.005402 0.005143 0.002146 
0.002665 0.00094 0.0035 0.000687 0.000842 0.000708 0.000556 0.000637 0.00146 
0.0061 
