# vtk DataFile Version 5.1
vtk output
ASCII
DATASET POLYDATA
POINTS 22 double
-4.49 56 0 18.08 59.33 0 -4.49 56 0 
18.08 59.33 0 -4.49 56 1 18.08 59.33 1 
-4.49 56 2 18.08 59.33 2 -4.49 56 3 
18.08 59.33 3 -4.49 56 4 18.08 59.33 4 
-4.49 56 5 18.08 59.33 5 -4.49 56 6 
18.08 59.33 6 -4.49 56 7 18.08 59.33 7 
-4.49 56 8 18.08 59.33 8 -4.49 56 9 
18.08 59.33 9 
VERTICES 23 22
OFFSETS vtktypeint64
0 1 2 3 4 5 6 7 8 
9 10 11 12 13 14 15 16 17 
18 19 20 21 22 
CONNECTIVITY vtktypeint64
0 1 2 3 4 5 6 7 8 
9 10 11 12 13 14 15 16 17 
18 19 20 21 
POINT_DATA 22
SCALARS I131 double
LOOKUP_TABLE default
0 0.000338 0 0.000338 0 0.000338 0 0.000338 0 
0.000338 0 0.000338 0 0.000338 0 0.000338 0 0.000338 
0 0.000338 0 0.000338 
FIELD FieldData 2
CS134 1 22 double
0.017 0.000177 0.017 0.000177 0.017 0.000177 0.017 0.000177 0.017 
0.000177 0.017 0.000177 0.017 0.000177 0.017 0.000177 0.017 0.000177 
0.017 0.000177 0.017 0.000177 
CS137 1 22 double
0.034 0.000324 0.034 0.000324 0.034 0.000324 0.034 0.000324 0.034 
0.000324 0.034 0.000324 0.034 0.000324 0.034 0.000324 0.034 0.000324 
0.034 0.000324 0.034 0.000324 
