# vtk DataFile Version 5.1
vtk output
ASCII
DATASET POLYDATA
POINTS 1122 double
12.07 55.7 0 12.07 55.7 0 10.59 49.3 0 
12.78 49.2 0 7.87 48 0 9.95 51.53 0 
9.95 51.53 0 9.73 52.38 0 8.67 49 0 
8.67 49 0 7.65 51.11 0 11.58 48.13 0 
7.15 53.71 0 8.77 50.1 0 8.94 48.46 0 
11.34 48 0 10.75 52.81 0 5.75 43.71 0 
0.25 47.15 0 4.81 50.1 0 4.8 44.63 0 
-1.9 49.55 0 2.31 51 0 5.72 45.18 0 
7.42 43.73 0 2.18 48.68 0 2.36 48.85 0 
2.16 48.73 0 4.73 44.33 0 5.38 49.15 0 
11.33 44.48 0 11.33 44.48 0 12.3 42.03 0 
12.3 42.03 0 12.3 42.03 0 12.3 42.03 0 
12.3 42.03 0 12.3 42.03 0 12.3 42.03 0 
12.3 42.03 0 12.3 42.03 0 12.3 42.03 0 
8.63 45.8 0 8.63 45.8 0 8.63 45.8 0 
8.63 45.8 0 8.63 45.8 0 8.63 45.8 0 
8.63 45.8 0 8.63 45.8 0 8.63 45.8 0 
8.63 45.8 0 8.63 45.8 0 8.63 45.8 0 
8.02 45.21 0 16.63 40.17 0 16.63 40.17 0 
5.18 52.11 0 5.18 52.11 0 6.56 53.13 0 
6.53 53.25 0 23.78 38 0 21.79 40.31 0 
22.95 40.59 0 -2.45 51.69 0 -2.45 51.69 0 
-2.45 51.69 0 -3.61 55.06 0 -4.83 56 0 
5.12 51.18 0 -0.37 39.46 0 7.12 46.49 0 
7.42 46.42 0 9.78 47.51 0 11.41 47.28 0 
11.41 47.28 0 11.41 47.28 0 14.33 46.63 0 
14.33 46.63 0 14.33 46.63 0 14.3 48.31 0 
14.3 48.31 0 14.3 48.31 0 13.05 47.9 0 
24.7 60.45 0 9.8 59.9 0 9.8 59.9 0 
9.8 59.9 0 9.8 59.9 0 12 57.75 0 
13.92 56.82 0 13.92 56.82 0 13.92 56.82 0 
13.92 56.82 0 13.92 56.82 0 14.67 63.17 0 
18.08 59.33 0 18.08 59.33 0 20.25 63.83 0 
48.17 17.17 0 21.25 48.73 0 19.1 47.5 0 
12.07 55.7 0 12.07 55.7 0 10.59 49.3 0 
12.78 49.2 0 7.87 48 0 9.95 51.53 0 
9.95 51.53 0 9.73 52.38 0 8.67 49 0 
8.67 49 0 7.65 51.11 0 11.58 48.13 0 
7.15 53.71 0 8.77 50.1 0 8.94 48.46 0 
11.34 48 0 10.75 52.81 0 5.75 43.71 0 
0.25 47.15 0 4.81 50.1 0 4.8 44.63 0 
-1.9 49.55 0 2.31 51 0 5.72 45.18 0 
7.42 43.73 0 2.18 48.68 0 2.36 48.85 0 
2.16 48.73 0 4.73 44.33 0 5.38 49.15 0 
11.33 44.48 0 11.33 44.48 0 12.3 42.03 0 
12.3 42.03 0 12.3 42.03 0 12.3 42.03 0 
12.3 42.03 0 12.3 42.03 0 12.3 42.03 0 
12.3 42.03 0 12.3 42.03 0 12.3 42.03 0 
8.63 45.8 0 8.63 45.8 0 8.63 45.8 0 
8.63 45.8 0 8.63 45.8 0 8.63 45.8 0 
8.63 45.8 0 8.63 45.8 0 8.63 45.8 0 
8.63 45.8 0 8.63 45.8 0 8.63 45.8 0 
8.02 45.21 0 16.63 40.17 0 16.63 40.17 0 
5.18 52.11 0 5.18 52.11 0 6.56 53.13 0 
6.53 53.25 0 23.78 38 0 21.79 40.31 0 
22.95 40.59 0 -2.45 51.69 0 -2.45 51.69 0 
-2.45 51.69 0 -3.61 55.06 0 -4.83 56 0 
5.12 51.18 0 -0.37 39.46 0 7.12 46.49 0 
7.42 46.42 0 9.78 47.51 0 11.41 47.28 0 
11.41 47.28 0 11.41 47.28 0 14.33 46.63 0 
14.33 46.63 0 14.33 46.63 0 14.3 48.31 0 
14.3 48.31 0 14.3 48.31 0 13.05 47.9 0 
24.7 60.45 0 9.8 59.9 0 9.8 59.9 0 
9.8 59.9 0 9.8 59.9 0 12 57.75 0 
13.92 56.82 0 13.92 56.82 0 13.92 56.82 0 
13.92 56.82 0 13.92 56.82 0 14.67 63.17 0 
18.08 59.33 0 18.08 59.33 0 20.25 63.83 0 
48.17 17.17 0 21.25 48.73 0 19.1 47.5 0 
12.07 55.7 1 12.07 55.7 1 10.59 49.3 1 
12.78 49.2 1 7.87 48 1 9.95 51.53 1 
9.95 51.53 1 9.73 52.38 1 8.67 49 1 
8.67 49 1 7.65 51.11 1 11.58 48.13 1 
7.15 53.71 1 8.77 50.1 1 8.94 48.46 1 
11.34 48 1 10.75 52.81 1 5.75 43.71 1 
0.25 47.15 1 4.81 50.1 1 4.8 44.63 1 
-1.9 49.55 1 2.31 51 1 5.72 45.18 1 
7.42 43.73 1 2.18 48.68 1 2.36 48.85 1 
2.16 48.73 1 4.73 44.33 1 5.38 49.15 1 
11.33 44.48 1 11.33 44.48 1 12.3 42.03 1 
12.3 42.03 1 12.3 42.03 1 12.3 42.03 1 
12.3 42.03 1 12.3 42.03 1 12.3 42.03 1 
12.3 42.03 1 12.3 42.03 1 12.3 42.03 1 
8.63 45.8 1 8.63 45.8 1 8.63 45.8 1 
8.63 45.8 1 8.63 45.8 1 8.63 45.8 1 
8.63 45.8 1 8.63 45.8 1 8.63 45.8 1 
8.63 45.8 1 8.63 45.8 1 8.63 45.8 1 
8.02 45.21 1 16.63 40.17 1 16.63 40.17 1 
5.18 52.11 1 5.18 52.11 1 6.56 53.13 1 
6.53 53.25 1 23.78 38 1 21.79 40.31 1 
22.95 40.59 1 -2.45 51.69 1 -2.45 51.69 1 
-2.45 51.69 1 -3.61 55.06 1 -4.83 56 1 
5.12 51.18 1 -0.37 39.46 1 7.12 46.49 1 
7.42 46.42 1 9.78 47.51 1 11.41 47.28 1 
11.41 47.28 1 11.41 47.28 1 14.33 46.63 1 
14.33 46.63 1 14.33 46.63 1 14.3 48.31 1 
14.3 48.31 1 14.3 48.31 1 13.05 47.9 1 
24.7 60.45 1 9.8 59.9 1 9.8 59.9 1 
9.8 59.9 1 9.8 59.9 1 12 57.75 1 
13.92 56.82 1 13.92 56.82 1 13.92 56.82 1 
13.92 56.82 1 13.92 56.82 1 14.67 63.17 1 
18.08 59.33 1 18.08 59.33 1 20.25 63.83 1 
48.17 17.17 1 21.25 48.73 1 19.1 47.5 1 
12.07 55.7 2 12.07 55.7 2 10.59 49.3 2 
12.78 49.2 2 7.87 48 2 9.95 51.53 2 
9.95 51.53 2 9.73 52.38 2 8.67 49 2 
8.67 49 2 7.65 51.11 2 11.58 48.13 2 
7.15 53.71 2 8.77 50.1 2 8.94 48.46 2 
11.34 48 2 10.75 52.81 2 5.75 43.71 2 
0.25 47.15 2 4.81 50.1 2 4.8 44.63 2 
-1.9 49.55 2 2.31 51 2 5.72 45.18 2 
7.42 43.73 2 2.18 48.68 2 2.36 48.85 2 
2.16 48.73 2 4.73 44.33 2 5.38 49.15 2 
11.33 44.48 2 11.33 44.48 2 12.3 42.03 2 
12.3 42.03 2 12.3 42.03 2 12.3 42.03 2 
12.3 42.03 2 12.3 42.03 2 12.3 42.03 2 
12.3 42.03 2 12.3 42.03 2 12.3 42.03 2 
8.63 45.8 2 8.63 45.8 2 8.63 45.8 2 
8.63 45.8 2 8.63 45.8 2 8.63 45.8 2 
8.63 45.8 2 8.63 45.8 2 8.63 45.8 2 
8.63 45.8 2 8.63 45.8 2 8.63 45.8 2 
8.02 45.21 2 16.63 40.17 2 16.63 40.17 2 
5.18 52.11 2 5.18 52.11 2 6.56 53.13 2 
6.53 53.25 2 23.78 38 2 21.79 40.31 2 
22.95 40.59 2 -2.45 51.69 2 -2.45 51.69 2 
-2.45 51.69 2 -3.61 55.06 2 -4.83 56 2 
5.12 51.18 2 -0.37 39.46 2 7.12 46.49 2 
7.42 46.42 2 9.78 47.51 2 11.41 47.28 2 
11.41 47.28 2 11.41 47.28 2 14.33 46.63 2 
14.33 46.63 2 14.33 46.63 2 14.3 48.31 2 
14.3 48.31 2 14.3 48.31 2 13.05 47.9 2 
24.7 60.45 2 9.8 59.9 2 9.8 59.9 2 
9.8 59.9 2 9.8 59.9 2 12 57.75 2 
13.92 56.82 2 13.92 56.82 2 13.92 56.82 2 
13.92 56.82 2 13.92 56.82 2 14.67 63.17 2 
18.08 59.33 2 18.08 59.33 2 20.25 63.83 2 
48.17 17.17 2 21.25 48.73 2 19.1 47.5 2 
12.07 55.7 3 12.07 55.7 3 10.59 49.3 3 
12.78 49.2 3 7.87 48 3 9.95 51.53 3 
9.95 51.53 3 9.73 52.38 3 8.67 49 3 
8.67 49 3 7.65 51.11 3 11.58 48.13 3 
7.15 53.71 3 8.77 50.1 3 8.94 48.46 3 
11.34 48 3 10.75 52.81 3 5.75 43.71 3 
0.25 47.15 3 4.81 50.1 3 4.8 44.63 3 
-1.9 49.55 3 2.31 51 3 5.72 45.18 3 
7.42 43.73 3 2.18 48.68 3 2.36 48.85 3 
2.16 48.73 3 4.73 44.33 3 5.38 49.15 3 
11.33 44.48 3 11.33 44.48 3 12.3 42.03 3 
12.3 42.03 3 12.3 42.03 3 12.3 42.03 3 
12.3 42.03 3 12.3 42.03 3 12.3 42.03 3 
12.3 42.03 3 12.3 42.03 3 12.3 42.03 3 
8.63 45.8 3 8.63 45.8 3 8.63 45.8 3 
8.63 45.8 3 8.63 45.8 3 8.63 45.8 3 
8.63 45.8 3 8.63 45.8 3 8.63 45.8 3 
8.63 45.8 3 8.63 45.8 3 8.63 45.8 3 
8.02 45.21 3 16.63 40.17 3 16.63 40.17 3 
5.18 52.11 3 5.18 52.11 3 6.56 53.13 3 
6.53 53.25 3 23.78 38 3 21.79 40.31 3 
22.95 40.59 3 -2.45 51.69 3 -2.45 51.69 3 
-2.45 51.69 3 -3.61 55.06 3 -4.83 56 3 
5.12 51.18 3 -0.37 39.46 3 7.12 46.49 3 
7.42 46.42 3 9.78 47.51 3 11.41 47.28 3 
11.41 47.28 3 11.41 47.28 3 14.33 46.63 3 
14.33 46.63 3 14.33 46.63 3 14.3 48.31 3 
14.3 48.31 3 14.3 48.31 3 13.05 47.9 3 
24.7 60.45 3 9.8 59.9 3 9.8 59.9 3 
9.8 59.9 3 9.8 59.9 3 12 57.75 3 
13.92 56.82 3 13.92 56.82 3 13.92 56.82 3 
13.92 56.82 3 13.92 56.82 3 14.67 63.17 3 
18.08 59.33 3 18.08 59.33 3 20.25 63.83 3 
48.17 17.17 3 21.25 48.73 3 19.1 47.5 3 
12.07 55.7 4 12.07 55.7 4 10.59 49.3 4 
12.78 49.2 4 7.87 48 4 9.95 51.53 4 
9.95 51.53 4 9.73 52.38 4 8.67 49 4 
8.67 49 4 7.65 51.11 4 11.58 48.13 4 
7.15 53.71 4 8.77 50.1 4 8.94 48.46 4 
11.34 48 4 10.75 52.81 4 5.75 43.71 4 
0.25 47.15 4 4.81 50.1 4 4.8 44.63 4 
-1.9 49.55 4 2.31 51 4 5.72 45.18 4 
7.42 43.73 4 2.18 48.68 4 2.36 48.85 4 
2.16 48.73 4 4.73 44.33 4 5.38 49.15 4 
11.33 44.48 4 11.33 44.48 4 12.3 42.03 4 
12.3 42.03 4 12.3 42.03 4 12.3 42.03 4 
12.3 42.03 4 12.3 42.03 4 12.3 42.03 4 
12.3 42.03 4 12.3 42.03 4 12.3 42.03 4 
8.63 45.8 4 8.63 45.8 4 8.63 45.8 4 
8.63 45.8 4 8.63 45.8 4 8.63 45.8 4 
8.63 45.8 4 8.63 45.8 4 8.63 45.8 4 
8.63 45.8 4 8.63 45.8 4 8.63 45.8 4 
8.02 45.21 4 16.63 40.17 4 16.63 40.17 4 
5.18 52.11 4 5.18 52.11 4 6.56 53.13 4 
6.53 53.25 4 23.78 38 4 21.79 40.31 4 
22.95 40.59 4 -2.45 51.69 4 -2.45 51.69 4 
-2.45 51.69 4 -3.61 55.06 4 -4.83 56 4 
5.12 51.18 4 -0.37 39.46 4 7.12 46.49 4 
7.42 46.42 4 9.78 47.51 4 11.41 47.28 4 
11.41 47.28 4 11.41 47.28 4 14.33 46.63 4 
14.33 46.63 4 14.33 46.63 4 14.3 48.31 4 
14.3 48.31 4 14.3 48.31 4 13.05 47.9 4 
24.7 60.45 4 9.8 59.9 4 9.8 59.9 4 
9.8 59.9 4 9.8 59.9 4 12 57.75 4 
13.92 56.82 4 13.92 56.82 4 13.92 56.82 4 
13.92 56.82 4 13.92 56.82 4 14.67 63.17 4 
18.08 59.33 4 18.08 59.33 4 20.25 63.83 4 
48.17 17.17 4 21.25 48.73 4 19.1 47.5 4 
12.07 55.7 5 12.07 55.7 5 10.59 49.3 5 
12.78 49.2 5 7.87 48 5 9.95 51.53 5 
9.95 51.53 5 9.73 52.38 5 8.67 49 5 
8.67 49 5 7.65 51.11 5 11.58 48.13 5 
7.15 53.71 5 8.77 50.1 5 8.94 48.46 5 
11.34 48 5 10.75 52.81 5 5.75 43.71 5 
0.25 47.15 5 4.81 50.1 5 4.8 44.63 5 
-1.9 49.55 5 2.31 51 5 5.72 45.18 5 
7.42 43.73 5 2.18 48.68 5 2.36 48.85 5 
2.16 48.73 5 4.73 44.33 5 5.38 49.15 5 
11.33 44.48 5 11.33 44.48 5 12.3 42.03 5 
12.3 42.03 5 12.3 42.03 5 12.3 42.03 5 
12.3 42.03 5 12.3 42.03 5 12.3 42.03 5 
12.3 42.03 5 12.3 42.03 5 12.3 42.03 5 
8.63 45.8 5 8.63 45.8 5 8.63 45.8 5 
8.63 45.8 5 8.63 45.8 5 8.63 45.8 5 
8.63 45.8 5 8.63 45.8 5 8.63 45.8 5 
8.63 45.8 5 8.63 45.8 5 8.63 45.8 5 
8.02 45.21 5 16.63 40.17 5 16.63 40.17 5 
5.18 52.11 5 5.18 52.11 5 6.56 53.13 5 
6.53 53.25 5 23.78 38 5 21.79 40.31 5 
22.95 40.59 5 -2.45 51.69 5 -2.45 51.69 5 
-2.45 51.69 5 -3.61 55.06 5 -4.83 56 5 
5.12 51.18 5 -0.37 39.46 5 7.12 46.49 5 
7.42 46.42 5 9.78 47.51 5 11.41 47.28 5 
11.41 47.28 5 11.41 47.28 5 14.33 46.63 5 
14.33 46.63 5 14.33 46.63 5 14.3 48.31 5 
14.3 48.31 5 14.3 48.31 5 13.05 47.9 5 
24.7 60.45 5 9.8 59.9 5 9.8 59.9 5 
9.8 59.9 5 9.8 59.9 5 12 57.75 5 
13.92 56.82 5 13.92 56.82 5 13.92 56.82 5 
13.92 56.82 5 13.92 56.82 5 14.67 63.17 5 
18.08 59.33 5 18.08 59.33 5 20.25 63.83 5 
48.17 17.17 5 21.25 48.73 5 19.1 47.5 5 
12.07 55.7 6 12.07 55.7 6 10.59 49.3 6 
12.78 49.2 6 7.87 48 6 9.95 51.53 6 
9.95 51.53 6 9.73 52.38 6 8.67 49 6 
8.67 49 6 7.65 51.11 6 11.58 48.13 6 
7.15 53.71 6 8.77 50.1 6 8.94 48.46 6 
11.34 48 6 10.75 52.81 6 5.75 43.71 6 
0.25 47.15 6 4.81 50.1 6 4.8 44.63 6 
-1.9 49.55 6 2.31 51 6 5.72 45.18 6 
7.42 43.73 6 2.18 48.68 6 2.36 48.85 6 
2.16 48.73 6 4.73 44.33 6 5.38 49.15 6 
11.33 44.48 6 11.33 44.48 6 12.3 42.03 6 
12.3 42.03 6 12.3 42.03 6 12.3 42.03 6 
[...]
POINT_DATA 1122
SCALARS I131 double
LOOKUP_TABLE default
0.334 0.164 0.148 0.49 0.13 0.57 0.62 0.392 0 
0 0.213 0.32 0.333 0.141 0.364 0.97 0.76 0.5 
0.0038 0.07 0.11 0.0028 0.023 0.0851 0.48 0.0034 0.012 
0 0.11 0.11 0.681 0.563 0.367 0.376 0.309 0.406 
0.727 0.827 1.453 0.239 0.385 0.444 4.11 5.48 6.53 
8.29 10.95 15.13 15.59 13.32 10.38 9.99 8.74 6.19 
0 1.541 0.913 0.1 0.03 0.13 0.05 5.6 2.1 
3.2 0.001 0.0015 0.0014 0.031 0.058 0.09 0 0.111 
0.5946 0.3256 0.9176 1.628 5.587 0.5217 0.7992 0.8066 1.016698 
0.906648 0.848654 0.613658 0 0 0 0 0 0.3 
0.234 0.107 0.277 0.274 0.267 0.071 0.093 0.15 0.0701 
0.34 6.8 0.44 0.334 0.164 0.148 0.49 0.13 0.57 
0.62 0.392 0 0 0.213 0.32 0.333 0.141 0.364 
0.97 0.76 0.5 0.0038 0.07 0.11 0.0028 0.023 0.0851 
0.48 0.0034 0.012 0 0.11 0.11 0.681 0.563 0.367 
0.376 0.309 0.406 0.727 0.827 1.453 0.239 0.385 0.444 
4.11 5.48 6.53 8.29 10.95 15.13 15.59 13.32 10.38 
9.99 8.74 6.19 0 1.541 0.913 0.1 0.03 0.13 
0.05 5.6 2.1 3.2 0.001 0.0015 0.0014 0.031 0.058 
0.09 0 0.111 0.5946 0.3256 0.9176 1.628 5.587 0.5217 
0.7992 0.8066 1.016698 0.906648 0.848654 0.613658 0 0 0 
0 0 0.3 0.234 0.107 0.277 0.274 0.267 0.071 
0.093 0.15 0.0701 0.34 6.8 0.44 0.334 0.164 0.148 
0.49 0.13 0.57 0.62 0.392 0 0 0.213 0.32 
0.333 0.141 0.364 0.97 0.76 0.5 0.0038 0.07 0.11 
0.0028 0.023 0.0851 0.48 0.0034 0.012 0 0.11 0.11 
0.681 0.563 0.367 0.376 0.309 0.406 0.727 0.827 1.453 
0.239 0.385 0.444 4.11 5.48 6.53 8.29 10.95 15.13 
15.59 13.32 10.38 9.99 8.74 6.19 0 1.541 0.913 
0.1 0.03 0.13 0.05 5.6 2.1 3.2 0.001 0.0015 
0.0014 0.031 0.058 0.09 0 0.111 0.5946 0.3256 0.9176 
1.628 5.587 0.5217 0.7992 0.8066 1.016698 0.906648 0.848654 0.613658 
0 0 0 0 0 0.3 0.234 0.107 0.277 
0.274 0.267 0.071 0.093 0.15 0.0701 0.34 6.8 0.44 
0.334 0.164 0.148 0.49 0.13 0.57 0.62 0.392 0 
0 0.213 0.32 0.333 0.141 0.364 0.97 0.76 0.5 
0.0038 0.07 0.11 0.0028 0.023 0.0851 0.48 0.0034 0.012 
0 0.11 0.11 0.681 0.563 0.367 0.376 0.309 0.406 
0.727 0.827 1.453 0.239 0.385 0.444 4.11 5.48 6.53 
8.29 10.95 15.13 15.59 13.32 10.38 9.99 8.74 6.19 
0 1.541 0.913 0.1 0.03 0.13 0.05 5.6 2.1 
3.2 0.001 0.0015 0.0014 0.031 0.058 0.09 0 0.111 
0.5946 0.3256 0.9176 1.628 5.587 0.5217 0.7992 0.8066 1.016698 
0.906648 0.848654 0.613658 0 0 0 0 0 0.3 
0.234 0.107 0.277 0.274 0.267 0.071 0.093 0.15 0.0701 
0.34 6.8 0.44 0.334 0.164 0.148 0.49 0.13 0.57 
0.62 0.392 0 0 0.213 0.32 0.333 0.141 0.364 
0.97 0.76 0.5 0.0038 0.07 0.11 0.0028 0.023 0.0851 
0.48 0.0034 0.012 0 0.11 0.11 0.681 0.563 0.367 
0.376 0.309 0.406 0.727 0.827 1.453 0.239 0.385 0.444 
4.11 5.48 6.53 8.29 10.95 15.13 15.59 13.32 10.38 
9.99 8.74 6.19 0 1.541 0.913 0.1 0.03 0.13 
0.05 5.6 2.1 3.2 0.001 0.0015 0.0014 0.031 0.058 
0.09 0 0.111 0.5946 0.3256 0.9176 1.628 5.587 0.5217 
0.7992 0.8066 1.016698 0.906648 0.848654 0.613658 0 0 0 
0 0 0.3 0.234 0.107 0.277 0.274 0.267 0.071 
0.093 0.15 0.0701 0.34 6.8 0.44 0.334 0.164 0.148 
0.49 0.13 0.57 0.62 0.392 0 0 0.213 0.32 
0.333 0.141 0.364 0.97 0.76 0.5 0.0038 0.07 0.11 
0.0028 0.023 0.0851 0.48 0.0034 0.012 0 0.11 0.11 
0.681 0.563 0.367 0.376 0.309 0.406 0.727 0.827 1.453 
0.239 0.385 0.444 4.11 5.48 6.53 8.29 10.95 15.13 
15.59 13.32 10.38 9.99 8.74 6.19 0 1.541 0.913 
0.1 0.03 0.13 0.05 5.6 2.1 3.2 0.001 0.0015 
0.0014 0.031 0.058 0.09 0 0.111 0.5946 0.3256 0.9176 
1.628 5.587 0.5217 0.7992 0.8066 1.016698 0.906648 0.848654 0.613658 
0 0 0 0 0 0.3 0.234 0.107 0.277 
0.274 0.267 0.071 0.093 0.15 0.0701 0.34 6.8 0.44 
0.334 0.164 0.148 0.49 0.13 0.57 0.62 0.392 0 
0 0.213 0.32 0.333 0.141 0.364 0.97 0.76 0.5 
0.0038 0.07 0.11 0.0028 0.023 0.0851 0.48 0.0034 0.012 
0 0.11 0.11 0.681 0.563 0.367 0.376 0.309 0.406 
0.727 0.827 1.453 0.239 0.385 0.444 4.11 5.48 6.53 
8.29 10.95 15.13 15.59 13.32 10.38 9.99 8.74 6.19 
0 1.541 0.913 0.1 0.03 0.13 0.05 5.6 2.1 
3.2 0.001 0.0015 0.0014 0.031 0.058 0.09 0 0.111 
0.5946 0.3256 0.9176 1.628 5.587 0.5217 0.7992 0.8066 1.016698 
0.906648 0.848654 0.613658 0 0 0 0 0 0.3 
0.234 0.107 0.277 0.274 0.267 0.071 0.093 0.15 0.0701 
0.34 6.8 0.44 0.334 0.164 0.148 0.49 0.13 0.57 
0.62 0.392 0 0 0.213 0.32 0.333 0.141 0.364 
0.97 0.76 0.5 0.0038 0.07 0.11 0.0028 0.023 0.0851 
0.48 0.0034 0.012 0 0.11 0.11 0.681 0.563 0.367 
0.376 0.309 0.406 0.727 0.827 1.453 0.239 0.385 0.444 
4.11 5.48 6.53 8.29 10.95 15.13 15.59 13.32 10.38 
9.99 8.74 6.19 0 1.541 0.913 0.1 0.03 0.13 
0.05 5.6 2.1 3.2 0.001 0.0015 0.0014 0.031 0.058 
0.09 0 0.111 0.5946 0.3256 0.9176 1.628 5.587 0.5217 
0.7992 0.8066 1.016698 0.906648 0.848654 0.613658 0 0 0 
0 0 0.3 0.234 0.107 0.277 0.274 0.267 0.071 
0.093 0.15 0.0701 0.34 6.8 0.44 0.334 0.164 0.148 
0.49 0.13 0.57 0.62 0.392 0 0 0.213 0.32 
0.333 0.141 0.364 0.97 0.76 0.5 0.0038 0.07 0.11 
0.0028 0.023 0.0851 0.48 0.0034 0.012 0 0.11 0.11 
0.681 0.563 0.367 0.376 0.309 0.406 0.727 0.827 1.453 
0.239 0.385 0.444 4.11 5.48 6.53 8.29 10.95 15.13 
15.59 13.32 10.38 9.99 8.74 6.19 0 1.541 0.913 
0.1 0.03 0.13 0.05 5.6 2.1 3.2 0.001 0.0015 
0.0014 0.031 0.058 0.09 0 0.111 0.5946 0.3256 0.9176 
1.628 5.587 0.5217 0.7992 0.8066 1.016698 0.906648 0.848654 0.613658 
0 0 0 0 0 0.3 0.234 0.107 0.277 
0.274 0.267 0.071 0.093 0.15 0.0701 0.34 6.8 0.44 
0.334 0.164 0.148 0.49 0.13 0.57 0.62 0.392 0 
0 0.213 0.32 0.333 0.141 0.364 0.97 0.76 0.5 
0.0038 0.07 0.11 0.0028 0.023 0.0851 0.48 0.0034 0.012 
0 0.11 0.11 0.681 0.563 0.367 0.376 0.309 0.406 
0.727 0.827 1.453 0.239 0.385 0.444 4.11 5.48 6.53 
8.29 10.95 15.13 15.59 13.32 10.38 9.99 8.74 6.19 
0 1.541 0.913 0.1 0.03 0.13 0.05 5.6 2.1 
3.2 0.001 0.0015 0.0014 0.031 0.058 0.09 0 0.111 
0.5946 0.3256 0.9176 1.628 5.587 0.5217 0.7992 0.8066 1.016698 
0.906648 0.848654 0.613658 0 0 0 0 0 0.3 
0.234 0.107 0.277 0.274 0.267 0.071 0.093 0.15 0.0701 
0.34 6.8 0.44 0.334 0.164 0.148 0.49 0.13 0.57 
0.62 0.392 0 0 0.213 0.32 0.333 0.141 0.364 
0.97 0.76 0.5 0.0038 0.07 0.11 0.0028 0.023 0.0851 
0.48 0.0034 0.012 0 0.11 0.11 0.681 0.563 0.367 
0.376 0.309 0.406 0.727 0.827 1.453 0.239 0.385 0.444 
4.11 5.48 6.53 8.29 10.95 15.13 15.59 13.32 10.38 
9.99 8.74 6.19 0 1.541 0.913 0.1 0.03 0.13 
0.05 5.6 2.1 3.2 0.001 0.0015 0.0014 0.031 0.058 
0.09 0 0.111 0.5946 0.3256 0.9176 1.628 5.587 0.5217 
0.7992 0.8066 1.016698 0.906648 0.848654 0.613658 0 0 0 
0 0 0.3 0.234 0.107 0.277 0.274 0.267 0.071 
0.093 0.15 0.0701 0.34 6.8 0.44 
FIELD FieldData 2
CS134 1 1122 double
0.0073 0.0039 0 0 0.03 0 0.11 0.107 0.049 
0.051 0 0.09 0.085 0.041 0 0 0 0.06 
0 0.03 0.065 0 0.012 0.037 0.14 0.0003 0.0029 
0.002 0.062 0.063 0.199 0.316 0.13 0.13 0.137 0.159 
0.259 0.281 0.444 0.081 0.123 0.148 0 0 0 
0 0 0 0 0 0 0 0 0 
0.067 0.407 0.178 0.02 0.004 0.03 0 0 0 
0 0 0 0 0.0029 0.006 0.025 0.0254 0.022 
0.1184 0.11396 0.3256 0.35816 0.72039 0.22792 0.26455 0.15466 0.504171 
0.235149 0.209331 0.175408 0.0054 0 0 0 0 0.0078 
0.00397 0.002 0.00599 0.00334 0.003 0.00317 0.0053 0.00346 0.00869 
0.047 0.527 0.056 0.0073 0.0039 0 0 0.03 0 
0.11 0.107 0.049 0.051 0 0.09 0.085 0.041 0 
0 0 0.06 0 0.03 0.065 0 0.012 0.037 
0.14 0.0003 0.0029 0.002 0.062 0.063 0.199 0.316 0.13 
0.13 0.137 0.159 0.259 0.281 0.444 0.081 0.123 0.148 
0 0 0 0 0 0 0 0 0 
0 0 0 0.067 0.407 0.178 0.02 0.004 0.03 
0 0 0 0 0 0 0 0.0029 0.006 
0.025 0.0254 0.022 0.1184 0.11396 0.3256 0.35816 0.72039 0.22792 
0.26455 0.15466 0.504171 0.235149 0.209331 0.175408 0.0054 0 0 
0 0 0.0078 0.00397 0.002 0.00599 0.00334 0.003 0.00317 
0.0053 0.00346 0.00869 0.047 0.527 0.056 0.0073 0.0039 0 
0 0.03 0 0.11 0.107 0.049 0.051 0 0.09 
0.085 0.041 0 0 0 0.06 0 0.03 0.065 
0 0.012 0.037 0.14 0.0003 0.0029 0.002 0.062 0.063 
0.199 0.316 0.13 0.13 0.137 0.159 0.259 0.281 0.444 
0.081 0.123 0.148 0 0 0 0 0 0 
0 0 0 0 0 0 0.067 0.407 0.178 
0.02 0.004 0.03 0 0 0 0 0 0 
0 0.0029 0.006 0.025 0.0254 0.022 0.1184 0.11396 0.3256 
0.35816 0.72039 0.22792 0.26455 0.15466 0.504171 0.235149 0.209331 0.175408 
0.0054 0 0 0 0 0.0078 0.00397 0.002 0.00599 
0.00334 0.003 0.00317 0.0053 0.00346 0.00869 0.047 0.527 0.056 
0.0073 0.0039 0 0 0.03 0 0.11 0.107 0.049 
0.051 0 0.09 0.085 0.041 0 0 0 0.06 
0 0.03 0.065 0 0.012 0.037 0.14 0.0003 0.0029 
0.002 0.062 0.063 0.199 0.316 0.13 0.13 0.137 0.159 
0.259 0.281 0.444 0.081 0.123 0.148 0 0 0 
0 0 0 0 0 0 0 0 0 
0.067 0.407 0.178 0.02 0.004 0.03 0 0 0 
0 0 0 0 0.0029 0.006 0.025 0.0254 0.022 
0.1184 0.11396 0.3256 0.35816 0.72039 0.22792 0.26455 0.15466 0.504171 
0.235149 0.209331 0.175408 0.0054 0 0 0 0 0.0078 
0.00397 0.002 0.00599 0.00334 0.003 0.00317 0.0053 0.00346 0.00869 
0.047 0.527 0.056 0.0073 0.0039 0 0 0.03 0 
0.11 0.107 0.049 0.051 0 0.09 0.085 0.041 0 
0 0 0.06 0 0.03 0.065 0 0.012 0.037 
0.14 0.0003 0.0029 0.002 0.062 0.063 0.199 0.316 0.13 
0.13 0.137 0.159 0.259 0.281 0.444 0.081 0.123 0.148 
0 0 0 0 0 0 0 0 0 
0 0 0 0.067 0.407 0.178 0.02 0.004 0.03 
0 0 0 0 0 0 0 0.0029 0.006 
0.025 0.0254 0.022 0.1184 0.11396 0.3256 0.35816 0.72039 0.22792 
0.26455 0.15466 0.504171 0.235149 0.209331 0.175408 0.0054 0 0 
0 0 0.0078 0.00397 0.002 0.00599 0.00334 0.003 0.00317 
0.0053 0.00346 0.00869 0.047 0.527 0.056 0.0073 0.0039 0 
0 0.03 0 0.11 0.107 0.049 0.051 0 0.09 
0.085 0.041 0 0 0 0.06 0 0.03 0.065 
0 0.012 0.037 0.14 0.0003 0.0029 0.002 0.062 0.063 
0.199 0.316 0.13 0.13 0.137 0.159 0.259 0.281 0.444 
0.081 0.123 0.148 0 0 0 0 0 0 
0 0 0 0 0 0 0.067 0.407 0.178 
0.02 0.004 0.03 0 0 0 0 0 0 
0 0.0029 0.006 0.025 0.0254 0.022 0.1184 0.11396 0.3256 
0.35816 0.72039 0.22792 0.26455 0.15466 0.504171 0.235149 0.209331 0.175408 
0.0054 0 0 0 0 0.0078 0.00397 0.002 0.00599 
0.00334 0.003 0.00317 0.0053 0.00346 0.00869 0.047 0.527 0.056 
0.0073 0.0039 0 0 0.03 0 0.11 0.107 0.049 
0.051 0 0.09 0.085 0.041 0 0 0 0.06 
0 0.03 0.065 0 0.012 0.037 0.14 0.0003 0.0029 
0.002 0.062 0.063 0.199 0.316 0.13 0.13 0.137 0.159 
0.259 0.281 0.444 0.081 0.123 0.148 0 0 0 
0 0 0 0 0 0 0 0 0 
0.067 0.407 0.178 0.02 0.004 0.03 0 0 0 
0 0 0 0 0.0029 0.006 0.025 0.0254 0.022 
0.1184 0.11396 0.3256 0.35816 0.72039 0.22792 0.26455 0.15466 0.504171 
0.235149 0.209331 0.175408 0.0054 0 0 0 0 0.0078 
0.00397 0.002 0.00599 0.00334 0.003 0.00317 0.0053 0.00346 0.00869 
0.047 0.527 0.056 0.0073 0.0039 0 0 0.03 0 
0.11 0.107 0.049 0.051 0 0.09 0.085 0.041 0 
0 0 0.06 0 0.03 0.065 0 0.012 0.037 
0.14 0.0003 0.0029 0.002 0.062 0.063 0.199 0.316 0.13 
0.13 0.137 0.159 0.259 0.281 0.444 0.081 0.123 0.148 
0 0 0 0 0 0 0 0 0 
0 0 0 0.067 0.407 0.178 0.02 0.004 0.03 
0 0 0 0 0 0 0 0.0029 0.006 
0.025 0.0254 0.022 0.1184 0.11396 0.3256 0.35816 0.72039 0.22792 
0.26455 0.15466 0.504171 0.235149 0.209331 0.175408 0.0054 0 0 
0 0 0.0078 0.00397 0.002 0.00599 0.00334 0.003 0.00317 
0.0053 0.00346 0.00869 0.047 0.527 0.056 0.0073 0.0039 0 
0 0.03 0 0.11 0.107 0.049 0.051 0 0.09 
0.085 0.041 0 0 0 0.06 0 0.03 0.065 
0 0.012 0.037 0.14 0.0003 0.0029 0.002 0.062 0.063 
0.199 0.316 0.13 0.13 0.137 0.159 0.259 0.281 0.444 
0.081 0.123 0.148 0 0 0 0 0 0 
0 0 0 0 0 0 0.067 0.407 0.178 
0.02 0.004 0.03 0 0 0 0 0 0 
0 0.0029 0.006 0.025 0.0254 0.022 0.1184 0.11396 0.3256 
0.35816 0.72039 0.22792 0.26455 0.15466 0.504171 0.235149 0.209331 0.175408 
0.0054 0 0 0 0 0.0078 0.00397 0.002 0.00599 
0.00334 0.003 0.00317 0.0053 0.00346 0.00869 0.047 0.527 0.056 
0.0073 0.0039 0 0 0.03 0 0.11 0.107 0.049 
0.051 0 0.09 0.085 0.041 0 0 0 0.06 
0 0.03 0.065 0 0.012 0.037 0.14 0.0003 0.0029 
0.002 0.062 0.063 0.199 0.316 0.13 0.13 0.137 0.159 
0.259 0.281 0.444 0.081 0.123 0.148 0 0 0 
0 0 0 0 0 0 0 0 0 
0.067 0.407 0.178 0.02 0.004 0.03 0 0 0 
0 0 0 0 0.0029 0.006 0.025 0.0254 0.022 
0.1184 0.11396 0.3256 0.35816 0.72039 0.22792 0.26455 0.15466 0.504171 
0.235149 0.209331 0.175408 0.0054 0 0 0 0 0.0078 
0.00397 0.002 0.00599 0.00334 0.003 0.00317 0.0053 0.00346 0.00869 
0.047 0.527 0.056 0.0073 0.0039 0 0 0.03 0 
0.11 0.107 0.049 0.051 0 0.09 0.085 0.041 0 
0 0 0.06 0 0.03 0.065 0 0.012 0.037 
0.14 0.0003 0.0029 0.002 0.062 0.063 0.199 0.316 0.13 
0.13 0.137 0.159 0.259 0.281 0.444 0.081 0.123 0.148 
0 0 0 0 0 0 0 0 0 
0 0 0 0.067 0.407 0.178 0.02 0.004 0.03 
0 0 0 0 0 0 0 0.0029 0.006 
0.025 0.0254 0.022 0.1184 0.11396 0.3256 0.35816 0.72039 0.22792 
0.26455 0.15466 0.504171 0.235149 0.209331 0.175408 0.0054 0 0 
0 0 0.0078 0.00397 0.002 0.00599 0.00334 0.003 0.00317 
0.0053 0.00346 0.00869 0.047 0.527 0.056 
CS137 1 1122 double
0.0124 0.0064 0.11 0.36 0.04 0.39 0.23 0.226 0.095 
0.11 0.179 0.12 0.189 0.074 0.24 0.62 0.2 0.1 
0 0.06 0 0 0 0.0777 0.3 0.0005 0.0059 
0.002 0.14 0.12 0.404 0.644 0.256 0.259 0.278 0.315 
0.5 0.556 0.889 0.156 0.274 0.323 0.62 0.83 1 
1.27 1.69 2.36 2.45 2.11 1.65 1.6 1.41 1.02 
0.0066 0.815 0.363 0.05 0.01 0.05 0.031 1.7 0.7 
2.2 0 0.0008 0.0006 0.0054 0.011 0.054 0.0663 0.039 
0.2509 0.2109 0.6216 0.666 1.258 0.407 0.4773 0.2738 0.589324 
0.480587 0.385037 0.308853 0.0091 0.016 0.012 0.008 0.02 0.0135 
0.00675 0.00376 0.0101 0.00572 0.0054 0.00535 0.00885 0.00554 0.014 
1.1 0.932 0.1 0.0124 0.0064 0.11 0.36 0.04 0.39 
0.23 0.226 0.095 0.11 0.179 0.12 0.189 0.074 0.24 
0.62 0.2 0.1 0 0.06 0 0 0 0.0777 
0.3 0.0005 0.0059 0.002 0.14 0.12 0.404 0.644 0.256 
0.259 0.278 0.315 0.5 0.556 0.889 0.156 0.274 0.323 
0.62 0.83 1 1.27 1.69 2.36 2.45 2.11 1.65 
1.6 1.41 1.02 0.0066 0.815 0.363 0.05 0.01 0.05 
0.031 1.7 0.7 2.2 0 0.0008 0.0006 0.0054 0.011 
0.054 0.0663 0.039 0.2509 0.2109 0.6216 0.666 1.258 0.407 
0.4773 0.2738 0.589324 0.480587 0.385037 0.308853 0.0091 0.016 0.012 
0.008 0.02 0.0135 0.00675 0.00376 0.0101 0.00572 0.0054 0.00535 
0.00885 0.00554 0.014 1.1 0.932 0.1 0.0124 0.0064 0.11 
0.36 0.04 0.39 0.23 0.226 0.095 0.11 0.179 0.12 
0.189 0.074 0.24 0.62 0.2 0.1 0 0.06 0 
0 0 0.0777 0.3 0.0005 0.0059 0.002 0.14 0.12 
0.404 0.644 0.256 0.259 0.278 0.315 0.5 0.556 0.889 
0.156 0.274 0.323 0.62 0.83 1 1.27 1.69 2.36 
2.45 2.11 1.65 1.6 1.41 1.02 0.0066 0.815 0.363 
0.05 0.01 0.05 0.031 1.7 0.7 2.2 0 0.0008 
0.0006 0.0054 0.011 0.054 0.0663 0.039 0.2509 0.2109 0.6216 
0.666 1.258 0.407 0.4773 0.2738 0.589324 0.480587 0.385037 0.308853 
0.0091 0.016 0.012 0.008 0.02 0.0135 0.00675 0.00376 0.0101 
0.00572 0.0054 0.00535 0.00885 0.00554 0.014 1.1 0.932 0.1 
0.0124 0.0064 0.11 0.36 0.04 0.39 0.23 0.226 0.095 
0.11 0.179 0.12 0.189 0.074 0.24 0.62 0.2 0.1 
0 0.06 0 0 0 0.0777 0.3 0.0005 0.0059 
0.002 0.14 0.12 0.404 0.644 0.256 0.259 0.278 0.315 
0.5 0.556 0.889 0.156 0.274 0.323 0.62 0.83 1 
1.27 1.69 2.36 2.45 2.11 1.65 1.6 1.41 1.02 
0.0066 0.815 0.363 0.05 0.01 0.05 0.031 1.7 0.7 
2.2 0 0.0008 0.0006 0.0054 0.011 0.054 0.0663 0.039 
0.2509 0.2109 0.6216 0.666 1.258 0.407 0.4773 0.2738 0.589324 
0.480587 0.385037 0.308853 0.0091 0.016 0.012 0.008 0.02 0.0135 
0.00675 0.00376 0.0101 0.00572 0.0054 0.00535 0.00885 0.00554 0.014 
1.1 0.932 0.1 0.0124 0.0064 0.11 0.36 0.04 0.39 
0.23 0.226 0.095 0.11 0.179 0.12 0.189 0.074 0.24 
0.62 0.2 0.1 0 0.06 0 0 0 0.0777 
0.3 0.0005 0.0059 0.002 0.14 0.12 0.404 0.644 0.256 
0.259 0.278 0.315 0.5 0.556 0.889 0.156 0.274 0.323 
0.62 0.83 1 1.27 1.69 2.36 2.45 2.11 1.65 
1.6 1.41 1.02 0.0066 0.815 0.363 0.05 0.01 0.05 
0.031 1.7 0.7 2.2 0 0.0008 0.0006 0.0054 0.011 
0.054 0.0663 0.039 0.2509 0.2109 0.6216 0.666 1.258 0.407 
0.4773 0.2738 0.589324 0.480587 0.385037 0.308853 0.0091 0.016 0.012 
0.008 0.02 0.0135 0.00675 0.00376 0.0101 0.00572 0.0054 0.00535 
0.00885 0.00554 0.014 1.1 0.932 0.1 0.0124 0.0064 0.11 
0.36 0.04 0.39 0.23 0.226 0.095 0.11 0.179 0.12 
0.189 0.074 0.24 0.62 0.2 0.1 0 0.06 0 
0 0 0.0777 0.3 0.0005 0.0059 0.002 0.14 0.12 
0.404 0.644 0.256 0.259 0.278 0.315 0.5 0.556 0.889 
0.156 0.274 0.323 0.62 0.83 1 1.27 1.69 2.36 
2.45 2.11 1.65 1.6 1.41 1.02 0.0066 0.815 0.363 
0.05 0.01 0.05 0.031 1.7 0.7 2.2 0 0.0008 
0.0006 0.0054 0.011 0.054 0.0663 0.039 0.2509 0.2109 0.6216 
0.666 1.258 0.407 0.4773 0.2738 0.589324 0.480587 0.385037 0.308853 
0.0091 0.016 0.012 0.008 0.02 0.0135 0.00675 0.00376 0.0101 
0.00572 0.0054 0.00535 0.00885 0.00554 0.014 1.1 0.932 0.1 
0.0124 0.0064 0.11 0.36 0.04 0.39 0.23 0.226 0.095 
0.11 0.179 0.12 0.189 0.074 0.24 0.62 0.2 0.1 
0 0.06 0 0 0 0.0777 0.3 0.0005 0.0059 
0.002 0.14 0.12 0.404 0.644 0.256 0.259 0.278 0.315 
0.5 0.556 0.889 0.156 0.274 0.323 0.62 0.83 1 
1.27 1.69 2.36 2.45 2.11 1.65 1.6 1.41 1.02 
0.0066 0.815 0.363 0.05 0.01 0.05 0.031 1.7 0.7 
2.2 0 0.0008 0.0006 0.0054 0.011 0.054 0.0663 0.039 
0.2509 0.2109 0.6216 0.666 1.258 0.407 0.4773 0.2738 0.589324 
0.480587 0.385037 0.308853 0.0091 0.016 0.012 0.008 0.02 0.0135 
0.00675 0.00376 0.0101 0.00572 0.0054 0.00535 0.00885 0.00554 0.014 
1.1 0.932 0.1 0.0124 0.0064 0.11 0.36 0.04 0.39 
0.23 0.226 0.095 0.11 0.179 0.12 0.189 0.074 0.24 
0.62 0.2 0.1 0 0.06 0 0 0 0.0777 
0.3 0.0005 0.0059 0.002 0.14 0.12 0.404 0.644 0.256 
0.259 0.278 0.315 0.5 0.556 0.889 0.156 0.274 0.323 
0.62 0.83 1 1.27 1.69 2.36 2.45 2.11 1.65 
1.6 1.41 1.02 0.0066 0.815 0.363 0.05 0.01 0.05 
0.031 1.7 0.7 2.2 0 0.0008 0.0006 0.0054 0.011 
0.054 0.0663 0.039 0.2509 0.2109 0.6216 0.666 1.258 0.407 
0.4773 0.2738 0.589324 0.480587 0.385037 0.308853 0.0091 0.016 0.012 
0.008 0.02 0.0135 0.00675 0.00376 0.0101 0.00572 0.0054 0.00535 
0.00885 0.00554 0.014 1.1 0.932 0.1 0.0124 0.0064 0.11 
0.36 0.04 0.39 0.23 0.226 0.095 0.11 0.179 0.12 
0.189 0.074 0.24 0.62 0.2 0.1 0 0.06 0 
0 0 0.0777 0.3 0.0005 0.0059 0.002 0.14 0.12 
0.404 0.644 0.256 0.259 0.278 0.315 0.5 0.556 0.889 
0.156 0.274 0.323 0.62 0.83 1 1.27 1.69 2.36 
2.45 2.11 1.65 1.6 1.41 1.02 0.0066 0.815 0.363 
0.05 0.01 0.05 0.031 1.7 0.7 2.2 0 0.0008 
0.0006 0.0054 0.011 0.054 0.0663 0.039 0.2509 0.2109 0.6216 
0.666 1.258 0.407 0.4773 0.2738 0.589324 0.480587 0.385037 0.308853 
0.0091 0.016 0.012 0.008 0.02 0.0135 0.00675 0.00376 0.0101 
0.00572 0.0054 0.00535 0.00885 0.00554 0.014 1.1 0.932 0.1 
0.0124 0.0064 0.11 0.36 0.04 0.39 0.23 0.226 0.095 
0.11 0.179 0.12 0.189 0.074 0.24 0.62 0.2 0.1 
0 0.06 0 0 0 0.0777 0.3 0.0005 0.0059 
0.002 0.14 0.12 0.404 0.644 0.256 0.259 0.278 0.315 
0.5 0.556 0.889 0.156 0.274 0.323 0.62 0.83 1 
1.27 1.69 2.36 2.45 2.11 1.65 1.6 1.41 1.02 
0.0066 0.815 0.363 0.05 0.01 0.05 0.031 1.7 0.7 
2.2 0 0.0008 0.0006 0.0054 0.011 0.054 0.0663 0.039 
0.2509 0.2109 0.6216 0.666 1.258 0.407 0.4773 0.2738 0.589324 
0.480587 0.385037 0.308853 0.0091 0.016 0.012 0.008 0.02 0.0135 
0.00675 0.00376 0.0101 0.00572 0.0054 0.00535 0.00885 0.00554 0.014 
1.1 0.932 0.1 0.0124 0.0064 0.11 0.36 0.04 0.39 
0.23 0.226 0.095 0.11 0.179 0.12 0.189 0.074 0.24 
0.62 0.2 0.1 0 0.06 0 0 0 0.0777 
0.3 0.0005 0.0059 0.002 0.14 0.12 0.404 0.644 0.256 
0.259 0.278 0.315 0.5 0.556 0.889 0.156 0.274 0.323 
0.62 0.83 1 1.27 1.69 2.36 2.45 2.11 1.65 
1.6 1.41 1.02 0.0066 0.815 0.363 0.05 0.01 0.05 
0.031 1.7 0.7 2.2 0 0.0008 0.0006 0.0054 0.011 
0.054 0.0663 0.039 0.2509 0.2109 0.6216 0.666 1.258 0.407 
0.4773 0.2738 0.589324 0.480587 0.385037 0.308853 0.0091 0.016 0.012 
0.008 0.02 0.0135 0.00675 0.00376 0.0101 0.00572 0.0054 0.00535 
0.00885 0.00554 0.014 1.1 0.932 0.1 
