# vtk DataFile Version 5.1
vtk output
ASCII
DATASET POLYDATA
POINTS 1441 double
12.07 55.7 0 10.59 49.3 0 13.42 52.5 0 
12.78 49.2 0 7.87 48 0 9.95 51.53 0 
9.73 52.38 0 8.67 49 0 8.67 49 0 
7.65 51.11 0 11.58 48.13 0 7.15 53.71 0 
8.77 50.1 0 8.94 48.46 0 11.34 48 0 
10.75 52.81 0 5.75 43.71 0 0.25 47.15 0 
4.81 50.1 0 4.8 44.63 0 7.56 47.91 0 
-1.9 49.55 0 2.31 51 0 5.72 45.18 0 
4.8 44.13 0 7.42 43.73 0 2.18 48.68 0 
2.36 48.85 0 2.16 48.73 0 4.73 44.33 0 
5.38 49.15 0 11.33 44.48 0 11.33 44.48 0 
12.3 42.03 0 12.3 42.03 0 12.3 42.03 0 
12.3 42.03 0 12.3 42.03 0 12.3 42.03 0 
12.3 42.03 0 12.3 42.03 0 12.3 42.03 0 
8.63 45.8 0 8.63 45.8 0 8.63 45.8 0 
8.63 45.8 0 8.63 45.8 0 8.63 45.8 0 
8.63 45.8 0 8.63 45.8 0 8.63 45.8 0 
8.63 45.8 0 8.63 45.8 0 8.63 45.8 0 
8.02 45.21 0 8.02 45.21 0 16.63 40.17 0 
16.63 40.17 0 5.18 52.11 0 5.18 52.11 0 
5.18 52.11 0 5.18 52.11 0 5.18 52.11 0 
5.18 52.11 0 5.18 52.11 0 5.18 52.11 0 
5.18 52.11 0 5.18 52.11 0 5.18 52.11 0 
5.18 52.11 0 4.38 52 0 4.38 52 0 
6.56 53.13 0 6.56 53.13 0 6.56 53.13 0 
6.53 53.25 0 6.53 53.25 0 6.53 53.25 0 
4.64 52.76 0 4.64 52.76 0 3.58 51.45 0 
3.58 51.45 0 23.78 38 0 21.79 40.31 0 
22.95 40.59 0 -2.45 51.69 0 -2.45 51.69 0 
-2.45 51.69 0 -3.61 55.06 0 -3.61 55.06 0 
-3.61 55.06 0 -4.83 56 0 -4.83 56 0 
-4.83 56 0 -1.3 51.62 0 -1.3 51.62 0 
-1.3 51.62 0 4.33 50.78 0 4.33 50.78 0 
4.33 50.78 0 4.33 50.78 0 5.12 51.18 0 
-0.4 39.48 0 0 0 0 7.12 46.49 0 
7.12 46.49 0 7.42 46.42 0 9.78 47.51 0 
15.36 47.08 0 11.41 47.28 0 11.41 47.28 0 
11.41 47.28 0 14.33 46.63 0 14.3 48.31 0 
14.3 48.31 0 14.3 48.31 0 14.3 48.31 0 
14.3 48.31 0 13.05 47.9 0 24.7 60.45 0 
12 57.75 0 13.92 56.82 0 13.92 56.82 0 
14.67 63.17 0 14.67 63.17 0 18.08 59.33 0 
18.08 59.33 0 20.25 63.83 0 48.5 17.45 0 
21.25 48.73 0 19.1 47.5 0 12.07 55.7 0 
10.59 49.3 0 13.42 52.5 0 12.78 49.2 0 
7.87 48 0 9.95 51.53 0 9.73 52.38 0 
8.67 49 0 8.67 49 0 7.65 51.11 0 
11.58 48.13 0 7.15 53.71 0 8.77 50.1 0 
8.94 48.46 0 11.34 48 0 10.75 52.81 0 
5.75 43.71 0 0.25 47.15 0 4.81 50.1 0 
4.8 44.63 0 7.56 47.91 0 -1.9 49.55 0 
2.31 51 0 5.72 45.18 0 4.8 44.13 0 
7.42 43.73 0 2.18 48.68 0 2.36 48.85 0 
2.16 48.73 0 4.73 44.33 0 5.38 49.15 0 
11.33 44.48 0 11.33 44.48 0 12.3 42.03 0 
12.3 42.03 0 12.3 42.03 0 12.3 42.03 0 
12.3 42.03 0 12.3 42.03 0 12.3 42.03 0 
12.3 42.03 0 12.3 42.03 0 8.63 45.8 0 
8.63 45.8 0 8.63 45.8 0 8.63 45.8 0 
8.63 45.8 0 8.63 45.8 0 8.63 45.8 0 
8.63 45.8 0 8.63 45.8 0 8.63 45.8 0 
8.63 45.8 0 8.63 45.8 0 8.02 45.21 0 
8.02 45.21 0 16.63 40.17 0 16.63 40.17 0 
5.18 52.11 0 5.18 52.11 0 5.18 52.11 0 
5.18 52.11 0 5.18 52.11 0 5.18 52.11 0 
5.18 52.11 0 5.18 52.11 0 5.18 52.11 0 
5.18 52.11 0 5.18 52.11 0 5.18 52.11 0 
4.38 52 0 4.38 52 0 6.56 53.13 0 
6.56 53.13 0 6.56 53.13 0 6.53 53.25 0 
6.53 53.25 0 6.53 53.25 0 4.64 52.76 0 
4.64 52.76 0 3.58 51.45 0 3.58 51.45 0 
23.78 38 0 21.79 40.31 0 22.95 40.59 0 
-2.45 51.69 0 -2.45 51.69 0 -2.45 51.69 0 
-3.61 55.06 0 -3.61 55.06 0 -3.61 55.06 0 
-4.83 56 0 -4.83 56 0 -4.83 56 0 
-1.3 51.62 0 -1.3 51.62 0 -1.3 51.62 0 
4.33 50.78 0 4.33 50.78 0 4.33 50.78 0 
4.33 50.78 0 5.12 51.18 0 -0.4 39.48 0 
0 0 0 7.12 46.49 0 7.12 46.49 0 
7.42 46.42 0 9.78 47.51 0 15.36 47.08 0 
11.41 47.28 0 11.41 47.28 0 11.41 47.28 0 
14.33 46.63 0 14.3 48.31 0 14.3 48.31 0 
14.3 48.31 0 14.3 48.31 0 14.3 48.31 0 
13.05 47.9 0 24.7 60.45 0 12 57.75 0 
13.92 56.82 0 13.92 56.82 0 14.67 63.17 0 
14.67 63.17 0 18.08 59.33 0 18.08 59.33 0 
20.25 63.83 0 48.5 17.45 0 21.25 48.73 0 
19.1 47.5 0 12.07 55.7 1 10.59 49.3 1 
13.42 52.5 1 12.78 49.2 1 7.87 48 1 
9.95 51.53 1 9.73 52.38 1 8.67 49 1 
8.67 49 1 7.65 51.11 1 11.58 48.13 1 
7.15 53.71 1 8.77 50.1 1 8.94 48.46 1 
11.34 48 1 10.75 52.81 1 5.75 43.71 1 
0.25 47.15 1 4.81 50.1 1 4.8 44.63 1 
7.56 47.91 1 -1.9 49.55 1 2.31 51 1 
5.72 45.18 1 4.8 44.13 1 7.42 43.73 1 
2.18 48.68 1 2.36 48.85 1 2.16 48.73 1 
4.73 44.33 1 5.38 49.15 1 11.33 44.48 1 
11.33 44.48 1 12.3 42.03 1 12.3 42.03 1 
12.3 42.03 1 12.3 42.03 1 12.3 42.03 1 
12.3 42.03 1 12.3 42.03 1 12.3 42.03 1 
12.3 42.03 1 8.63 45.8 1 8.63 45.8 1 
8.63 45.8 1 8.63 45.8 1 8.63 45.8 1 
8.63 45.8 1 8.63 45.8 1 8.63 45.8 1 
8.63 45.8 1 8.63 45.8 1 8.63 45.8 1 
8.63 45.8 1 8.02 45.21 1 8.02 45.21 1 
16.63 40.17 1 16.63 40.17 1 5.18 52.11 1 
5.18 52.11 1 5.18 52.11 1 5.18 52.11 1 
5.18 52.11 1 5.18 52.11 1 5.18 52.11 1 
5.18 52.11 1 5.18 52.11 1 5.18 52.11 1 
5.18 52.11 1 5.18 52.11 1 4.38 52 1 
4.38 52 1 6.56 53.13 1 6.56 53.13 1 
6.56 53.13 1 6.53 53.25 1 6.53 53.25 1 
6.53 53.25 1 4.64 52.76 1 4.64 52.76 1 
3.58 51.45 1 3.58 51.45 1 23.78 38 1 
21.79 40.31 1 22.95 40.59 1 -2.45 51.69 1 
-2.45 51.69 1 -2.45 51.69 1 -3.61 55.06 1 
-3.61 55.06 1 -3.61 55.06 1 -4.83 56 1 
-4.83 56 1 -4.83 56 1 -1.3 51.62 1 
-1.3 51.62 1 -1.3 51.62 1 4.33 50.78 1 
4.33 50.78 1 4.33 50.78 1 4.33 50.78 1 
5.12 51.18 1 -0.4 39.48 1 0 0 1 
7.12 46.49 1 7.12 46.49 1 7.42 46.42 1 
9.78 47.51 1 15.36 47.08 1 11.41 47.28 1 
11.41 47.28 1 11.41 47.28 1 14.33 46.63 1 
14.3 48.31 1 14.3 48.31 1 14.3 48.31 1 
14.3 48.31 1 14.3 48.31 1 13.05 47.9 1 
24.7 60.45 1 12 57.75 1 13.92 56.82 1 
13.92 56.82 1 14.67 63.17 1 14.67 63.17 1 
18.08 59.33 1 18.08 59.33 1 20.25 63.83 1 
48.5 17.45 1 21.25 48.73 1 19.1 47.5 1 
12.07 55.7 2 10.59 49.3 2 13.42 52.5 2 
12.78 49.2 2 7.87 48 2 9.95 51.53 2 
9.73 52.38 2 8.67 49 2 8.67 49 2 
7.65 51.11 2 11.58 48.13 2 7.15 53.71 2 
8.77 50.1 2 8.94 48.46 2 11.34 48 2 
10.75 52.81 2 5.75 43.71 2 0.25 47.15 2 
4.81 50.1 2 4.8 44.63 2 7.56 47.91 2 
-1.9 49.55 2 2.31 51 2 5.72 45.18 2 
4.8 44.13 2 7.42 43.73 2 2.18 48.68 2 
2.36 48.85 2 2.16 48.73 2 4.73 44.33 2 
5.38 49.15 2 11.33 44.48 2 11.33 44.48 2 
12.3 42.03 2 12.3 42.03 2 12.3 42.03 2 
12.3 42.03 2 12.3 42.03 2 12.3 42.03 2 
12.3 42.03 2 12.3 42.03 2 12.3 42.03 2 
8.63 45.8 2 8.63 45.8 2 8.63 45.8 2 
8.63 45.8 2 8.63 45.8 2 8.63 45.8 2 
8.63 45.8 2 8.63 45.8 2 8.63 45.8 2 
8.63 45.8 2 8.63 45.8 2 8.63 45.8 2 
8.02 45.21 2 8.02 45.21 2 16.63 40.17 2 
16.63 40.17 2 5.18 52.11 2 5.18 52.11 2 
5.18 52.11 2 5.18 52.11 2 5.18 52.11 2 
5.18 52.11 2 5.18 52.11 2 5.18 52.11 2 
5.18 52.11 2 5.18 52.11 2 5.18 52.11 2 
5.18 52.11 2 4.38 52 2 4.38 52 2 
6.56 53.13 2 6.56 53.13 2 6.56 53.13 2 
6.53 53.25 2 6.53 53.25 2 6.53 53.25 2 
4.64 52.76 2 4.64 52.76 2 3.58 51.45 2 
3.58 51.45 2 23.78 38 2 21.79 40.31 2 
22.95 40.59 2 -2.45 51.69 2 -2.45 51.69 2 
-2.45 51.69 2 -3.61 55.06 2 -3.61 55.06 2 
-3.61 55.06 2 -4.83 56 2 -4.83 56 2 
-4.83 56 2 -1.3 51.62 2 -1.3 51.62 2 
-1.3 51.62 2 4.33 50.78 2 4.33 50.78 2 
4.33 50.78 2 4.33 50.78 2 5.12 51.18 2 
-0.4 39.48 2 0 0 2 7.12 46.49 2 
7.12 46.49 2 7.42 46.42 2 9.78 47.51 2 
15.36 47.08 2 11.41 47.28 2 11.41 47.28 2 
11.41 47.28 2 14.33 46.63 2 14.3 48.31 2 
14.3 48.31 2 14.3 48.31 2 14.3 48.31 2 
14.3 48.31 2 13.05 47.9 2 24.7 60.45 2 
12 57.75 2 13.92 56.82 2 13.92 56.82 2 
14.67 63.17 2 14.67 63.17 2 18.08 59.33 2 
18.08 59.33 2 20.25 63.83 2 48.5 17.45 2 
21.25 48.73 2 19.1 47.5 2 12.07 55.7 3 
10.59 49.3 3 13.42 52.5 3 12.78 49.2 3 
7.87 48 3 9.95 51.53 3 9.73 52.38 3 
8.67 49 3 8.67 49 3 7.65 51.11 3 
11.58 48.13 3 7.15 53.71 3 8.77 50.1 3 
8.94 48.46 3 11.34 48 3 10.75 52.81 3 
5.75 43.71 3 0.25 47.15 3 4.81 50.1 3 
4.8 44.63 3 7.56 47.91 3 -1.9 49.55 3 
2.31 51 3 5.72 45.18 3 4.8 44.13 3 
7.42 43.73 3 2.18 48.68 3 2.36 48.85 3 
2.16 48.73 3 4.73 44.33 3 5.38 49.15 3 
11.33 44.48 3 11.33 44.48 3 12.3 42.03 3 
12.3 42.03 3 12.3 42.03 3 12.3 42.03 3 
12.3 42.03 3 12.3 42.03 3 12.3 42.03 3 
12.3 42.03 3 12.3 42.03 3 8.63 45.8 3 
8.63 45.8 3 8.63 45.8 3 8.63 45.8 3 
8.63 45.8 3 8.63 45.8 3 8.63 45.8 3 
8.63 45.8 3 8.63 45.8 3 8.63 45.8 3 
8.63 45.8 3 8.63 45.8 3 8.02 45.21 3 
8.02 45.21 3 16.63 40.17 3 16.63 40.17 3 
5.18 52.11 3 5.18 52.11 3 5.18 52.11 3 
5.18 52.11 3 5.18 52.11 3 5.18 52.11 3 
5.18 52.11 3 5.18 52.11 3 5.18 52.11 3 
5.18 52.11 3 5.18 52.11 3 5.18 52.11 3 
4.38 52 3 4.38 52 3 6.56 53.13 3 
6.56 53.13 3 6.56 53.13 3 6.53 53.25 3 
6.53 53.25 3 6.53 53.25 3 4.64 52.76 3 
4.64 52.76 3 3.58 51.45 3 3.58 51.45 3 
23.78 38 3 21.79 40.31 3 22.95 40.59 3 
-2.45 51.69 3 -2.45 51.69 3 -2.45 51.69 3 
-3.61 55.06 3 -3.61 55.06 3 -3.61 55.06 3 
-4.83 56 3 -4.83 56 3 -4.83 56 3 
-1.3 51.62 3 -1.3 51.62 3 -1.3 51.62 3 
4.33 50.78 3 4.33 50.78 3 4.33 50.78 3 
4.33 50.78 3 5.12 51.18 3 -0.4 39.48 3 
0 0 3 7.12 46.49 3 7.12 46.49 3 
7.42 46.42 3 9.78 47.51 3 15.36 47.08 3 
11.41 47.28 3 11.41 47.28 3 11.41 47.28 3 
14.33 46.63 3 14.3 48.31 3 14.3 48.31 3 
14.3 48.31 3 14.3 48.31 3 14.3 48.31 3 
13.05 47.9 3 24.7 60.45 3 12 57.75 3 
13.92 56.82 3 13.92 56.82 3 14.67 63.17 3 
14.67 63.17 3 18.08 59.33 3 18.08 59.33 3 
20.25 63.83 3 48.5 17.45 3 21.25 48.73 3 
19.1 47.5 3 12.07 55.7 4 10.59 49.3 4 
13.42 52.5 4 12.78 49.2 4 7.87 48 4 
9.95 51.53 4 9.73 52.38 4 8.67 49 4 
8.67 49 4 7.65 51.11 4 11.58 48.13 4 
7.15 53.71 4 8.77 50.1 4 8.94 48.46 4 
11.34 48 4 10.75 52.81 4 5.75 43.71 4 
0.25 47.15 4 4.81 50.1 4 4.8 44.63 4 
7.56 47.91 4 -1.9 49.55 4 2.31 51 4 
5.72 45.18 4 4.8 44.13 4 7.42 43.73 4 
2.18 48.68 4 2.36 48.85 4 2.16 48.73 4 
4.73 44.33 4 5.38 49.15 4 11.33 44.48 4 
11.33 44.48 4 12.3 42.03 4 12.3 42.03 4 
12.3 42.03 4 12.3 42.03 4 12.3 42.03 4 
12.3 42.03 4 12.3 42.03 4 12.3 42.03 4 
12.3 42.03 4 8.63 45.8 4 8.63 45.8 4 
8.63 45.8 4 8.63 45.8 4 8.63 45.8 4 
8.63 45.8 4 8.63 45.8 4 8.63 45.8 4 
8.63 45.8 4 8.63 45.8 4 8.63 45.8 4 
8.63 45.8 4 8.02 45.21 4 8.02 45.21 4 
16.63 40.17 4 16.63 40.17 4 5.18 52.11 4 
5.18 52.11 4 5.18 52.11 4 5.18 52.11 4 
5.18 52.11 4 5.18 52.11 4 5.18 52.11 4 
5.18 52.11 4 5.18 52.11 4 5.18 52.11 4 
5.18 52.11 4 5.18 52.11 4 4.38 52 4 
4.38 52 4 6.56 53.13 4 6.56 53.13 4 
6.56 53.13 4 6.53 53.25 4 6.53 53.25 4 
6.53 53.25 4 4.64 52.76 4 4.64 52.76 4 
3.58 51.45 4 3.58 51.45 4 23.78 38 4 
21.79 40.31 4 22.95 40.59 4 -2.45 51.69 4 
-2.45 51.69 4 -2.45 51.69 4 -3.61 55.06 4 
-3.61 55.06 4 -3.61 55.06 4 -4.83 56 4 
-4.83 56 4 -4.83 56 4 -1.3 51.62 4 
-1.3 51.62 4 -1.3 51.62 4 4.33 50.78 4 
4.33 50.78 4 4.33 50.78 4 4.33 50.78 4 
[...]
POINT_DATA 1441
SCALARS I131 double
LOOKUP_TABLE default
0.2239 1.4 0.215 1.31 1.3 0.89 0.389 0 0 
1.379 1.4 0.363 1.04 1.464 2.83 0.22 5.9 0.24 
1.9 0.95 2.099999 0.75 0.065 0.518 1.183999 2.9 0.31 
0.18 0 0.9 1.77 2.926 2.099 1.276 1.392 1.48 
2.37 2.899 2.706 0.681 1.148 1.256 14.5 14.23 13.68 
11.62 10.62 8.79 6.72 5.25 3.28 3.21 3.18 2.87 
0 0 5.22 6.603 4 3.1 3.1 2.7 2.7 
2.6 2.5 2.4 2.4 2.2 0.6 0.5 0 0 
1.8 0.9 1.03 0.5 1.8 1.9 0 0 2.24 
1.06 3.1 4.5 0.2 0.22 0.02 0.006 0 0 
2.7 0.75 2.2 0.594 0.83 0.02 0.01 2.45 1.01 
1.68 1.75 1.98 0 0 1.147 1 2.3532 2.9785 
9.731 2.664 3.589 6.327 2.109 1.682476 2.035357 2.739566 10.985739 
10.192993 3.311836 0 0.111 0.00908 0.255 0.0225 0.038 0.0416 
0.0632 0.183 0.441 0.247 0.75 0.2239 1.4 0.215 1.31 
1.3 0.89 0.389 0 0 1.379 1.4 0.363 1.04 
1.464 2.83 0.22 5.9 0.24 1.9 0.95 2.099999 0.75 
0.065 0.518 1.183999 2.9 0.31 0.18 0 0.9 1.77 
2.926 2.099 1.276 1.392 1.48 2.37 2.899 2.706 0.681 
1.148 1.256 14.5 14.23 13.68 11.62 10.62 8.79 6.72 
5.25 3.28 3.21 3.18 2.87 0 0 5.22 6.603 
4 3.1 3.1 2.7 2.7 2.6 2.5 2.4 2.4 
2.2 0.6 0.5 0 0 1.8 0.9 1.03 0.5 
1.8 1.9 0 0 2.24 1.06 3.1 4.5 0.2 
0.22 0.02 0.006 0 0 2.7 0.75 2.2 0.594 
0.83 0.02 0.01 2.45 1.01 1.68 1.75 1.98 0 
0 1.147 1 2.3532 2.9785 9.731 2.664 3.589 6.327 
2.109 1.682476 2.035357 2.739566 10.985739 10.192993 3.311836 0 0.111 
0.00908 0.255 0.0225 0.038 0.0416 0.0632 0.183 0.441 0.247 
0.75 0.2239 1.4 0.215 1.31 1.3 0.89 0.389 0 
0 1.379 1.4 0.363 1.04 1.464 2.83 0.22 5.9 
0.24 1.9 0.95 2.099999 0.75 0.065 0.518 1.183999 2.9 
0.31 0.18 0 0.9 1.77 2.926 2.099 1.276 1.392 
1.48 2.37 2.899 2.706 0.681 1.148 1.256 14.5 14.23 
13.68 11.62 10.62 8.79 6.72 5.25 3.28 3.21 3.18 
2.87 0 0 5.22 6.603 4 3.1 3.1 2.7 
2.7 2.6 2.5 2.4 2.4 2.2 0.6 0.5 0 
0 1.8 0.9 1.03 0.5 1.8 1.9 0 0 
2.24 1.06 3.1 4.5 0.2 0.22 0.02 0.006 0 
0 2.7 0.75 2.2 0.594 0.83 0.02 0.01 2.45 
1.01 1.68 1.75 1.98 0 0 1.147 1 2.3532 
2.9785 9.731 2.664 3.589 6.327 2.109 1.682476 2.035357 2.739566 
10.985739 10.192993 3.311836 0 0.111 0.00908 0.255 0.0225 0.038 
0.0416 0.0632 0.183 0.441 0.247 0.75 0.2239 1.4 0.215 
1.31 1.3 0.89 0.389 0 0 1.379 1.4 0.363 
1.04 1.464 2.83 0.22 5.9 0.24 1.9 0.95 2.099999 
0.75 0.065 0.518 1.183999 2.9 0.31 0.18 0 0.9 
1.77 2.926 2.099 1.276 1.392 1.48 2.37 2.899 2.706 
0.681 1.148 1.256 14.5 14.23 13.68 11.62 10.62 8.79 
6.72 5.25 3.28 3.21 3.18 2.87 0 0 5.22 
6.603 4 3.1 3.1 2.7 2.7 2.6 2.5 2.4 
2.4 2.2 0.6 0.5 0 0 1.8 0.9 1.03 
0.5 1.8 1.9 0 0 2.24 1.06 3.1 4.5 
0.2 0.22 0.02 0.006 0 0 2.7 0.75 2.2 
0.594 0.83 0.02 0.01 2.45 1.01 1.68 1.75 1.98 
0 0 1.147 1 2.3532 2.9785 9.731 2.664 3.589 
6.327 2.109 1.682476 2.035357 2.739566 10.985739 10.192993 3.311836 0 
0.111 0.00908 0.255 0.0225 0.038 0.0416 0.0632 0.183 0.441 
0.247 0.75 0.2239 1.4 0.215 1.31 1.3 0.89 0.389 
0 0 1.379 1.4 0.363 1.04 1.464 2.83 0.22 
5.9 0.24 1.9 0.95 2.099999 0.75 0.065 0.518 1.183999 
2.9 0.31 0.18 0 0.9 1.77 2.926 2.099 1.276 
1.392 1.48 2.37 2.899 2.706 0.681 1.148 1.256 14.5 
14.23 13.68 11.62 10.62 8.79 6.72 5.25 3.28 3.21 
3.18 2.87 0 0 5.22 6.603 4 3.1 3.1 
2.7 2.7 2.6 2.5 2.4 2.4 2.2 0.6 0.5 
0 0 1.8 0.9 1.03 0.5 1.8 1.9 0 
0 2.24 1.06 3.1 4.5 0.2 0.22 0.02 0.006 
0 0 2.7 0.75 2.2 0.594 0.83 0.02 0.01 
2.45 1.01 1.68 1.75 1.98 0 0 1.147 1 
2.3532 2.9785 9.731 2.664 3.589 6.327 2.109 1.682476 2.035357 
2.739566 10.985739 10.192993 3.311836 0 0.111 0.00908 0.255 0.0225 
0.038 0.0416 0.0632 0.183 0.441 0.247 0.75 0.2239 1.4 
0.215 1.31 1.3 0.89 0.389 0 0 1.379 1.4 
0.363 1.04 1.464 2.83 0.22 5.9 0.24 1.9 0.95 
2.099999 0.75 0.065 0.518 1.183999 2.9 0.31 0.18 0 
0.9 1.77 2.926 2.099 1.276 1.392 1.48 2.37 2.899 
2.706 0.681 1.148 1.256 14.5 14.23 13.68 11.62 10.62 
8.79 6.72 5.25 3.28 3.21 3.18 2.87 0 0 
5.22 6.603 4 3.1 3.1 2.7 2.7 2.6 2.5 
2.4 2.4 2.2 0.6 0.5 0 0 1.8 0.9 
1.03 0.5 1.8 1.9 0 0 2.24 1.06 3.1 
4.5 0.2 0.22 0.02 0.006 0 0 2.7 0.75 
2.2 0.594 0.83 0.02 0.01 2.45 1.01 1.68 1.75 
1.98 0 0 1.147 1 2.3532 2.9785 9.731 2.664 
3.589 6.327 2.109 1.682476 2.035357 2.739566 10.985739 10.192993 3.311836 
0 0.111 0.00908 0.255 0.0225 0.038 0.0416 0.0632 0.183 
0.441 0.247 0.75 0.2239 1.4 0.215 1.31 1.3 0.89 
0.389 0 0 1.379 1.4 0.363 1.04 1.464 2.83 
0.22 5.9 0.24 1.9 0.95 2.099999 0.75 0.065 0.518 
1.183999 2.9 0.31 0.18 0 0.9 1.77 2.926 2.099 
1.276 1.392 1.48 2.37 2.899 2.706 0.681 1.148 1.256 
14.5 14.23 13.68 11.62 10.62 8.79 6.72 5.25 3.28 
3.21 3.18 2.87 0 0 5.22 6.603 4 3.1 
3.1 2.7 2.7 2.6 2.5 2.4 2.4 2.2 0.6 
0.5 0 0 1.8 0.9 1.03 0.5 1.8 1.9 
0 0 2.24 1.06 3.1 4.5 0.2 0.22 0.02 
0.006 0 0 2.7 0.75 2.2 0.594 0.83 0.02 
0.01 2.45 1.01 1.68 1.75 1.98 0 0 1.147 
1 2.3532 2.9785 9.731 2.664 3.589 6.327 2.109 1.682476 
2.035357 2.739566 10.985739 10.192993 3.311836 0 0.111 0.00908 0.255 
0.0225 0.038 0.0416 0.0632 0.183 0.441 0.247 0.75 0.2239 
1.4 0.215 1.31 1.3 0.89 0.389 0 0 1.379 
1.4 0.363 1.04 1.464 2.83 0.22 5.9 0.24 1.9 
0.95 2.099999 0.75 0.065 0.518 1.183999 2.9 0.31 0.18 
0 0.9 1.77 2.926 2.099 1.276 1.392 1.48 2.37 
2.899 2.706 0.681 1.148 1.256 14.5 14.23 13.68 11.62 
10.62 8.79 6.72 5.25 3.28 3.21 3.18 2.87 0 
0 5.22 6.603 4 3.1 3.1 2.7 2.7 2.6 
2.5 2.4 2.4 2.2 0.6 0.5 0 0 1.8 
0.9 1.03 0.5 1.8 1.9 0 0 2.24 1.06 
3.1 4.5 0.2 0.22 0.02 0.006 0 0 2.7 
0.75 2.2 0.594 0.83 0.02 0.01 2.45 1.01 1.68 
1.75 1.98 0 0 1.147 1 2.3532 2.9785 9.731 
2.664 3.589 6.327 2.109 1.682476 2.035357 2.739566 10.985739 10.192993 
3.311836 0 0.111 0.00908 0.255 0.0225 0.038 0.0416 0.0632 
0.183 0.441 0.247 0.75 0.2239 1.4 0.215 1.31 1.3 
0.89 0.389 0 0 1.379 1.4 0.363 1.04 1.464 
2.83 0.22 5.9 0.24 1.9 0.95 2.099999 0.75 0.065 
0.518 1.183999 2.9 0.31 0.18 0 0.9 1.77 2.926 
2.099 1.276 1.392 1.48 2.37 2.899 2.706 0.681 1.148 
1.256 14.5 14.23 13.68 11.62 10.62 8.79 6.72 5.25 
3.28 3.21 3.18 2.87 0 0 5.22 6.603 4 
3.1 3.1 2.7 2.7 2.6 2.5 2.4 2.4 2.2 
0.6 0.5 0 0 1.8 0.9 1.03 0.5 1.8 
1.9 0 0 2.24 1.06 3.1 4.5 0.2 0.22 
0.02 0.006 0 0 2.7 0.75 2.2 0.594 0.83 
0.02 0.01 2.45 1.01 1.68 1.75 1.98 0 0 
1.147 1 2.3532 2.9785 9.731 2.664 3.589 6.327 2.109 
1.682476 2.035357 2.739566 10.985739 10.192993 3.311836 0 0.111 0.00908 
0.255 0.0225 0.038 0.0416 0.0632 0.183 0.441 0.247 0.75 
0.2239 1.4 0.215 1.31 1.3 0.89 0.389 0 0 
1.379 1.4 0.363 1.04 1.464 2.83 0.22 5.9 0.24 
1.9 0.95 2.099999 0.75 0.065 0.518 1.183999 2.9 0.31 
0.18 0 0.9 1.77 2.926 2.099 1.276 1.392 1.48 
2.37 2.899 2.706 0.681 1.148 1.256 14.5 14.23 13.68 
11.62 10.62 8.79 6.72 5.25 3.28 3.21 3.18 2.87 
0 0 5.22 6.603 4 3.1 3.1 2.7 2.7 
2.6 2.5 2.4 2.4 2.2 0.6 0.5 0 0 
1.8 0.9 1.03 0.5 1.8 1.9 0 0 2.24 
1.06 3.1 4.5 0.2 0.22 0.02 0.006 0 0 
2.7 0.75 2.2 0.594 0.83 0.02 0.01 2.45 1.01 
1.68 1.75 1.98 0 0 1.147 1 2.3532 2.9785 
9.731 2.664 3.589 6.327 2.109 1.682476 2.035357 2.739566 10.985739 
10.192993 3.311836 0 0.111 0.00908 0.255 0.0225 0.038 0.0416 
0.0632 0.183 0.441 0.247 0.75 0.2239 1.4 0.215 1.31 
1.3 0.89 0.389 0 0 1.379 1.4 0.363 1.04 
1.464 2.83 0.22 5.9 0.24 1.9 0.95 2.099999 0.75 
0.065 0.518 1.183999 2.9 0.31 0.18 0 0.9 1.77 
2.926 2.099 1.276 1.392 1.48 2.37 2.899 2.706 0.681 
1.148 1.256 14.5 14.23 13.68 11.62 10.62 8.79 6.72 
5.25 3.28 3.21 3.18 2.87 0 0 5.22 6.603 
4 3.1 3.1 2.7 2.7 2.6 2.5 2.4 2.4 
2.2 0.6 0.5 0 0 1.8 0.9 1.03 0.5 
1.8 1.9 0 0 2.24 1.06 3.1 4.5 0.2 
0.22 0.02 0.006 0 0 2.7 0.75 2.2 0.594 
0.83 0.02 0.01 2.45 1.01 1.68 1.75 1.98 0 
0 1.147 1 2.3532 2.9785 9.731 2.664 3.589 6.327 
2.109 1.682476 2.035357 2.739566 10.985739 10.192993 3.311836 0 0.111 
0.00908 0.255 0.0225 0.038 0.0416 0.0632 0.183 0.441 0.247 
0.75 
FIELD FieldData 2
CS134 1 1441 double
0.00212 0 0.0026 0 0.35 0 0.037 1 0.63 
0 0.44 0.052 0.3 0 0 0 0.4 0.07 
0.63 0.23 0.76 0 0.23 0.1702 0.333 0.55 0.072 
0.046 0.1 0.235 0.71 0.519 0.52 0.648 0.5 0.444 
0.704 0.963 0.926 0.271 0.281 0.415 0 0 0 
0 0 0 0 0 0 0 0 0 
0.537 0.359 0.83 0.926 0.8 0.6 0.6 0.5 0.5 
0.4 0.4 0.4 0.4 0.3 0.1 0.1 0.77 0.53 
0.22 0.07 0.18 0 0 0 1.6 0.5 0.38 
0.3 0 0 0 0.07 0 0.0003 0.4 0.15 
1.2 0.24 0.77 0.141 0.3 0 0 0.22 0.09 
0.1 0.12 0.64 0.032 0.041 0.222 0.185 0.4033 1.16402 
1.9129 0.61864 0.70004 1.11925 0.7733 0.372138 0.556372 0.712059 2.195656 
3.045522 1.1069 0.0077 0.000173 0.000198 0.000644 0.000112 0.000216 0.000281 
0.00048 0.00967 0.077 0.033 0.13 0.00212 0 0.0026 0 
0.35 0 0.037 1 0.63 0 0.44 0.052 0.3 
0 0 0 0.4 0.07 0.63 0.23 0.76 0 
0.23 0.1702 0.333 0.55 0.072 0.046 0.1 0.235 0.71 
0.519 0.52 0.648 0.5 0.444 0.704 0.963 0.926 0.271 
0.281 0.415 0 0 0 0 0 0 0 
0 0 0 0 0 0.537 0.359 0.83 0.926 
0.8 0.6 0.6 0.5 0.5 0.4 0.4 0.4 0.4 
0.3 0.1 0.1 0.77 0.53 0.22 0.07 0.18 0 
0 0 1.6 0.5 0.38 0.3 0 0 0 
0.07 0 0.0003 0.4 0.15 1.2 0.24 0.77 0.141 
0.3 0 0 0.22 0.09 0.1 0.12 0.64 0.032 
0.041 0.222 0.185 0.4033 1.16402 1.9129 0.61864 0.70004 1.11925 
0.7733 0.372138 0.556372 0.712059 2.195656 3.045522 1.1069 0.0077 0.000173 
0.000198 0.000644 0.000112 0.000216 0.000281 0.00048 0.00967 0.077 0.033 
0.13 0.00212 0 0.0026 0 0.35 0 0.037 1 
0.63 0 0.44 0.052 0.3 0 0 0 0.4 
0.07 0.63 0.23 0.76 0 0.23 0.1702 0.333 0.55 
0.072 0.046 0.1 0.235 0.71 0.519 0.52 0.648 0.5 
0.444 0.704 0.963 0.926 0.271 0.281 0.415 0 0 
0 0 0 0 0 0 0 0 0 
0 0.537 0.359 0.83 0.926 0.8 0.6 0.6 0.5 
0.5 0.4 0.4 0.4 0.4 0.3 0.1 0.1 0.77 
0.53 0.22 0.07 0.18 0 0 0 1.6 0.5 
0.38 0.3 0 0 0 0.07 0 0.0003 0.4 
0.15 1.2 0.24 0.77 0.141 0.3 0 0 0.22 
0.09 0.1 0.12 0.64 0.032 0.041 0.222 0.185 0.4033 
1.16402 1.9129 0.61864 0.70004 1.11925 0.7733 0.372138 0.556372 0.712059 
2.195656 3.045522 1.1069 0.0077 0.000173 0.000198 0.000644 0.000112 0.000216 
0.000281 0.00048 0.00967 0.077 0.033 0.13 0.00212 0 0.0026 
0 0.35 0 0.037 1 0.63 0 0.44 0.052 
0.3 0 0 0 0.4 0.07 0.63 0.23 0.76 
0 0.23 0.1702 0.333 0.55 0.072 0.046 0.1 0.235 
0.71 0.519 0.52 0.648 0.5 0.444 0.704 0.963 0.926 
0.271 0.281 0.415 0 0 0 0 0 0 
0 0 0 0 0 0 0.537 0.359 0.83 
0.926 0.8 0.6 0.6 0.5 0.5 0.4 0.4 0.4 
0.4 0.3 0.1 0.1 0.77 0.53 0.22 0.07 0.18 
0 0 0 1.6 0.5 0.38 0.3 0 0 
0 0.07 0 0.0003 0.4 0.15 1.2 0.24 0.77 
0.141 0.3 0 0 0.22 0.09 0.1 0.12 0.64 
0.032 0.041 0.222 0.185 0.4033 1.16402 1.9129 0.61864 0.70004 
1.11925 0.7733 0.372138 0.556372 0.712059 2.195656 3.045522 1.1069 0.0077 
0.000173 0.000198 0.000644 0.000112 0.000216 0.000281 0.00048 0.00967 0.077 
0.033 0.13 0.00212 0 0.0026 0 0.35 0 0.037 
1 0.63 0 0.44 0.052 0.3 0 0 0 
0.4 0.07 0.63 0.23 0.76 0 0.23 0.1702 0.333 
0.55 0.072 0.046 0.1 0.235 0.71 0.519 0.52 0.648 
0.5 0.444 0.704 0.963 0.926 0.271 0.281 0.415 0 
0 0 0 0 0 0 0 0 0 
0 0 0.537 0.359 0.83 0.926 0.8 0.6 0.6 
0.5 0.5 0.4 0.4 0.4 0.4 0.3 0.1 0.1 
0.77 0.53 0.22 0.07 0.18 0 0 0 1.6 
0.5 0.38 0.3 0 0 0 0.07 0 0.0003 
0.4 0.15 1.2 0.24 0.77 0.141 0.3 0 0 
0.22 0.09 0.1 0.12 0.64 0.032 0.041 0.222 0.185 
0.4033 1.16402 1.9129 0.61864 0.70004 1.11925 0.7733 0.372138 0.556372 
0.712059 2.195656 3.045522 1.1069 0.0077 0.000173 0.000198 0.000644 0.000112 
0.000216 0.000281 0.00048 0.00967 0.077 0.033 0.13 0.00212 0 
0.0026 0 0.35 0 0.037 1 0.63 0 0.44 
0.052 0.3 0 0 0 0.4 0.07 0.63 0.23 
0.76 0 0.23 0.1702 0.333 0.55 0.072 0.046 0.1 
0.235 0.71 0.519 0.52 0.648 0.5 0.444 0.704 0.963 
0.926 0.271 0.281 0.415 0 0 0 0 0 
0 0 0 0 0 0 0 0.537 0.359 
0.83 0.926 0.8 0.6 0.6 0.5 0.5 0.4 0.4 
0.4 0.4 0.3 0.1 0.1 0.77 0.53 0.22 0.07 
0.18 0 0 0 1.6 0.5 0.38 0.3 0 
0 0 0.07 0 0.0003 0.4 0.15 1.2 0.24 
0.77 0.141 0.3 0 0 0.22 0.09 0.1 0.12 
0.64 0.032 0.041 0.222 0.185 0.4033 1.16402 1.9129 0.61864 
0.70004 1.11925 0.7733 0.372138 0.556372 0.712059 2.195656 3.045522 1.1069 
0.0077 0.000173 0.000198 0.000644 0.000112 0.000216 0.000281 0.00048 0.00967 
0.077 0.033 0.13 0.00212 0 0.0026 0 0.35 0 
0.037 1 0.63 0 0.44 0.052 0.3 0 0 
0 0.4 0.07 0.63 0.23 0.76 0 0.23 0.1702 
0.333 0.55 0.072 0.046 0.1 0.235 0.71 0.519 0.52 
0.648 0.5 0.444 0.704 0.963 0.926 0.271 0.281 0.415 
0 0 0 0 0 0 0 0 0 
0 0 0 0.537 0.359 0.83 0.926 0.8 0.6 
0.6 0.5 0.5 0.4 0.4 0.4 0.4 0.3 0.1 
0.1 0.77 0.53 0.22 0.07 0.18 0 0 0 
1.6 0.5 0.38 0.3 0 0 0 0.07 0 
0.0003 0.4 0.15 1.2 0.24 0.77 0.141 0.3 0 
0 0.22 0.09 0.1 0.12 0.64 0.032 0.041 0.222 
0.185 0.4033 1.16402 1.9129 0.61864 0.70004 1.11925 0.7733 0.372138 
0.556372 0.712059 2.195656 3.045522 1.1069 0.0077 0.000173 0.000198 0.000644 
0.000112 0.000216 0.000281 0.00048 0.00967 0.077 0.033 0.13 0.00212 
0 0.0026 0 0.35 0 0.037 1 0.63 0 
0.44 0.052 0.3 0 0 0 0.4 0.07 0.63 
0.23 0.76 0 0.23 0.1702 0.333 0.55 0.072 0.046 
0.1 0.235 0.71 0.519 0.52 0.648 0.5 0.444 0.704 
0.963 0.926 0.271 0.281 0.415 0 0 0 0 
0 0 0 0 0 0 0 0 0.537 
0.359 0.83 0.926 0.8 0.6 0.6 0.5 0.5 0.4 
0.4 0.4 0.4 0.3 0.1 0.1 0.77 0.53 0.22 
0.07 0.18 0 0 0 1.6 0.5 0.38 0.3 
0 0 0 0.07 0 0.0003 0.4 0.15 1.2 
0.24 0.77 0.141 0.3 0 0 0.22 0.09 0.1 
0.12 0.64 0.032 0.041 0.222 0.185 0.4033 1.16402 1.9129 
0.61864 0.70004 1.11925 0.7733 0.372138 0.556372 0.712059 2.195656 3.045522 
1.1069 0.0077 0.000173 0.000198 0.000644 0.000112 0.000216 0.000281 0.00048 
0.00967 0.077 0.033 0.13 0.00212 0 0.0026 0 0.35 
0 0.037 1 0.63 0 0.44 0.052 0.3 0 
0 0 0.4 0.07 0.63 0.23 0.76 0 0.23 
0.1702 0.333 0.55 0.072 0.046 0.1 0.235 0.71 0.519 
0.52 0.648 0.5 0.444 0.704 0.963 0.926 0.271 0.281 
0.415 0 0 0 0 0 0 0 0 
0 0 0 0 0.537 0.359 0.83 0.926 0.8 
0.6 0.6 0.5 0.5 0.4 0.4 0.4 0.4 0.3 
0.1 0.1 0.77 0.53 0.22 0.07 0.18 0 0 
0 1.6 0.5 0.38 0.3 0 0 0 0.07 
0 0.0003 0.4 0.15 1.2 0.24 0.77 0.141 0.3 
0 0 0.22 0.09 0.1 0.12 0.64 0.032 0.041 
0.222 0.185 0.4033 1.16402 1.9129 0.61864 0.70004 1.11925 0.7733 
0.372138 0.556372 0.712059 2.195656 3.045522 1.1069 0.0077 0.000173 0.000198 
0.000644 0.000112 0.000216 0.000281 0.00048 0.00967 0.077 0.033 0.13 
0.00212 0 0.0026 0 0.35 0 0.037 1 0.63 
0 0.44 0.052 0.3 0 0 0 0.4 0.07 
0.63 0.23 0.76 0 0.23 0.1702 0.333 0.55 0.072 
0.046 0.1 0.235 0.71 0.519 0.52 0.648 0.5 0.444 
0.704 0.963 0.926 0.271 0.281 0.415 0 0 0 
0 0 0 0 0 0 0 0 0 
0.537 0.359 0.83 0.926 0.8 0.6 0.6 0.5 0.5 
0.4 0.4 0.4 0.4 0.3 0.1 0.1 0.77 0.53 
0.22 0.07 0.18 0 0 0 1.6 0.5 0.38 
0.3 0 0 0 0.07 0 0.0003 0.4 0.15 
1.2 0.24 0.77 0.141 0.3 0 0 0.22 0.09 
0.1 0.12 0.64 0.032 0.041 0.222 0.185 0.4033 1.16402 
1.9129 0.61864 0.70004 1.11925 0.7733 0.372138 0.556372 0.712059 2.195656 
3.045522 1.1069 0.0077 0.000173 0.000198 0.000644 0.000112 0.000216 0.000281 
0.00048 0.00967 0.077 0.033 0.13 0.00212 0 0.0026 0 
0.35 0 0.037 1 0.63 0 0.44 0.052 0.3 
0 0 0 0.4 0.07 0.63 0.23 0.76 0 
0.23 0.1702 0.333 0.55 0.072 0.046 0.1 0.235 0.71 
0.519 0.52 0.648 0.5 0.444 0.704 0.963 0.926 0.271 
0.281 0.415 0 0 0 0 0 0 0 
0 0 0 0 0 0.537 0.359 0.83 0.926 
0.8 0.6 0.6 0.5 0.5 0.4 0.4 0.4 0.4 
0.3 0.1 0.1 0.77 0.53 0.22 0.07 0.18 0 
0 0 1.6 0.5 0.38 0.3 0 0 0 
0.07 0 0.0003 0.4 0.15 1.2 0.24 0.77 0.141 
0.3 0 0 0.22 0.09 0.1 0.12 0.64 0.032 
0.041 0.222 0.185 0.4033 1.16402 1.9129 0.61864 0.70004 1.11925 
0.7733 0.372138 0.556372 0.712059 2.195656 3.045522 1.1069 0.0077 0.000173 
0.000198 0.000644 0.000112 0.000216 0.000281 0.00048 0.00967 0.077 0.033 
0.13 
CS137 1 1441 double
0.00356 0.96 0.0026 1.42 0.38 0.27 0.074 2.5 1.5 
0.757 0.8 0.111 0.44 0.827 1.6 0.03 0.94 0.16 
1.099999 0.3 1.299999 0 0.34 0.3 0.3515 1.099999 0.142 
0.95 0.2 0.57 1.299999 0.894 1.172 1.2 0.951 0.87 
1.37 1.814 1.852 0.481 0.656 0.841 1.68 1.66 1.61 
1.38 1.27 1.06 0.81 0.64 0.4 0.4 0.4 0.36 
0 0.57 1.689 2.037 2 1.7 1.2 1.5 1.2 
0.9 0.8 0.75 0.75 0.7 0.2 0.2 1.5 1.1 
0.52 0.18 0.4 0.19 0.7 0.7 2.4 1.3 0.74 
0.68 1.6 1.4 0 0.13 0 0.0004 0 0 
2.2 0.45 1.41 0.32 0.00107 0.006 0.007 0.005 0.002 
0.003 0 1.28 0 0.0995 0.407 0.36 0.8177 2.22 
3.5002 1.184 1.295 2.146 1.48 0.704938 0.923613 1.208017 4.131412 
5.098655 1.35505 0.0132 0.000279 0.000384 0.0011 0.000215 0.000366 0.00054 
0.0007 0.016 0.53 0.054 0.26 0.00356 0.96 0.0026 1.42 
0.38 0.27 0.074 2.5 1.5 0.757 0.8 0.111 0.44 
0.827 1.6 0.03 0.94 0.16 1.099999 0.3 1.299999 0 
0.34 0.3 0.3515 1.099999 0.142 0.95 0.2 0.57 1.299999 
0.894 1.172 1.2 0.951 0.87 1.37 1.814 1.852 0.481 
0.656 0.841 1.68 1.66 1.61 1.38 1.27 1.06 0.81 
0.64 0.4 0.4 0.4 0.36 0 0.57 1.689 2.037 
2 1.7 1.2 1.5 1.2 0.9 0.8 0.75 0.75 
0.7 0.2 0.2 1.5 1.1 0.52 0.18 0.4 0.19 
0.7 0.7 2.4 1.3 0.74 0.68 1.6 1.4 0 
0.13 0 0.0004 0 0 2.2 0.45 1.41 0.32 
0.00107 0.006 0.007 0.005 0.002 0.003 0 1.28 0 
0.0995 0.407 0.36 0.8177 2.22 3.5002 1.184 1.295 2.146 
1.48 0.704938 0.923613 1.208017 4.131412 5.098655 1.35505 0.0132 0.000279 
0.000384 0.0011 0.000215 0.000366 0.00054 0.0007 0.016 0.53 0.054 
0.26 0.00356 0.96 0.0026 1.42 0.38 0.27 0.074 2.5 
1.5 0.757 0.8 0.111 0.44 0.827 1.6 0.03 0.94 
0.16 1.099999 0.3 1.299999 0 0.34 0.3 0.3515 1.099999 
0.142 0.95 0.2 0.57 1.299999 0.894 1.172 1.2 0.951 
0.87 1.37 1.814 1.852 0.481 0.656 0.841 1.68 1.66 
1.61 1.38 1.27 1.06 0.81 0.64 0.4 0.4 0.4 
0.36 0 0.57 1.689 2.037 2 1.7 1.2 1.5 
1.2 0.9 0.8 0.75 0.75 0.7 0.2 0.2 1.5 
1.1 0.52 0.18 0.4 0.19 0.7 0.7 2.4 1.3 
0.74 0.68 1.6 1.4 0 0.13 0 0.0004 0 
0 2.2 0.45 1.41 0.32 0.00107 0.006 0.007 0.005 
0.002 0.003 0 1.28 0 0.0995 0.407 0.36 0.8177 
2.22 3.5002 1.184 1.295 2.146 1.48 0.704938 0.923613 1.208017 
4.131412 5.098655 1.35505 0.0132 0.000279 0.000384 0.0011 0.000215 0.000366 
0.00054 0.0007 0.016 0.53 0.054 0.26 0.00356 0.96 0.0026 
1.42 0.38 0.27 0.074 2.5 1.5 0.757 0.8 0.111 
0.44 0.827 1.6 0.03 0.94 0.16 1.099999 0.3 1.299999 
0 0.34 0.3 0.3515 1.099999 0.142 0.95 0.2 0.57 
1.299999 0.894 1.172 1.2 0.951 0.87 1.37 1.814 1.852 
0.481 0.656 0.841 1.68 1.66 1.61 1.38 1.27 1.06 
0.81 0.64 0.4 0.4 0.4 0.36 0 0.57 1.689 
2.037 2 1.7 1.2 1.5 1.2 0.9 0.8 0.75 
0.75 0.7 0.2 0.2 1.5 1.1 0.52 0.18 0.4 
0.19 0.7 0.7 2.4 1.3 0.74 0.68 1.6 1.4 
0 0.13 0 0.0004 0 0 2.2 0.45 1.41 
0.32 0.00107 0.006 0.007 0.005 0.002 0.003 0 1.28 
0 0.0995 0.407 0.36 0.8177 2.22 3.5002 1.184 1.295 
2.146 1.48 0.704938 0.923613 1.208017 4.131412 5.098655 1.35505 0.0132 
0.000279 0.000384 0.0011 0.000215 0.000366 0.00054 0.0007 0.016 0.53 
0.054 0.26 0.00356 0.96 0.0026 1.42 0.38 0.27 0.074 
2.5 1.5 0.757 0.8 0.111 0.44 0.827 1.6 0.03 
0.94 0.16 1.099999 0.3 1.299999 0 0.34 0.3 0.3515 
1.099999 0.142 0.95 0.2 0.57 1.299999 0.894 1.172 1.2 
0.951 0.87 1.37 1.814 1.852 0.481 0.656 0.841 1.68 
1.66 1.61 1.38 1.27 1.06 0.81 0.64 0.4 0.4 
0.4 0.36 0 0.57 1.689 2.037 2 1.7 1.2 
1.5 1.2 0.9 0.8 0.75 0.75 0.7 0.2 0.2 
1.5 1.1 0.52 0.18 0.4 0.19 0.7 0.7 2.4 
1.3 0.74 0.68 1.6 1.4 0 0.13 0 0.0004 
0 0 2.2 0.45 1.41 0.32 0.00107 0.006 0.007 
0.005 0.002 0.003 0 1.28 0 0.0995 0.407 0.36 
0.8177 2.22 3.5002 1.184 1.295 2.146 1.48 0.704938 0.923613 
1.208017 4.131412 5.098655 1.35505 0.0132 0.000279 0.000384 0.0011 0.000215 
0.000366 0.00054 0.0007 0.016 0.53 0.054 0.26 0.00356 0.96 
0.0026 1.42 0.38 0.27 0.074 2.5 1.5 0.757 0.8 
0.111 0.44 0.827 1.6 0.03 0.94 0.16 1.099999 0.3 
1.299999 0 0.34 0.3 0.3515 1.099999 0.142 0.95 0.2 
0.57 1.299999 0.894 1.172 1.2 0.951 0.87 1.37 1.814 
1.852 0.481 0.656 0.841 1.68 1.66 1.61 1.38 1.27 
1.06 0.81 0.64 0.4 0.4 0.4 0.36 0 0.57 
1.689 2.037 2 1.7 1.2 1.5 1.2 0.9 0.8 
0.75 0.75 0.7 0.2 0.2 1.5 1.1 0.52 0.18 
0.4 0.19 0.7 0.7 2.4 1.3 0.74 0.68 1.6 
1.4 0 0.13 0 0.0004 0 0 2.2 0.45 
1.41 0.32 0.00107 0.006 0.007 0.005 0.002 0.003 0 
1.28 0 0.0995 0.407 0.36 0.8177 2.22 3.5002 1.184 
1.295 2.146 1.48 0.704938 0.923613 1.208017 4.131412 5.098655 1.35505 
0.0132 0.000279 0.000384 0.0011 0.000215 0.000366 0.00054 0.0007 0.016 
0.53 0.054 0.26 0.00356 0.96 0.0026 1.42 0.38 0.27 
0.074 2.5 1.5 0.757 0.8 0.111 0.44 0.827 1.6 
0.03 0.94 0.16 1.099999 0.3 1.299999 0 0.34 0.3 
0.3515 1.099999 0.142 0.95 0.2 0.57 1.299999 0.894 1.172 
1.2 0.951 0.87 1.37 1.814 1.852 0.481 0.656 0.841 
1.68 1.66 1.61 1.38 1.27 1.06 0.81 0.64 0.4 
0.4 0.4 0.36 0 0.57 1.689 2.037 2 1.7 
1.2 1.5 1.2 0.9 0.8 0.75 0.75 0.7 0.2 
0.2 1.5 1.1 0.52 0.18 0.4 0.19 0.7 0.7 
2.4 1.3 0.74 0.68 1.6 1.4 0 0.13 0 
0.0004 0 0 2.2 0.45 1.41 0.32 0.00107 0.006 
0.007 0.005 0.002 0.003 0 1.28 0 0.0995 0.407 
0.36 0.8177 2.22 3.5002 1.184 1.295 2.146 1.48 0.704938 
0.923613 1.208017 4.131412 5.098655 1.35505 0.0132 0.000279 0.000384 0.0011 
0.000215 0.000366 0.00054 0.0007 0.016 0.53 0.054 0.26 0.00356 
0.96 0.0026 1.42 0.38 0.27 0.074 2.5 1.5 0.757 