# vtk DataFile Version 5.1
vtk output
ASCII
DATASET POLYDATA
POINTS 88 double
12.07 55.7 0 9.95 51.53 0 23.78 38 0 
22.95 40.59 0 5.12 51.18 0 13.92 56.82 0 
18.08 59.33 0 20.25 63.83 0 12.07 55.7 0 
9.95 51.53 0 23.78 38 0 22.95 40.59 0 
5.12 51.18 0 13.92 56.82 0 18.08 59.33 0 
20.25 63.83 0 12.07 55.7 1 9.95 51.53 1 
23.78 38 1 22.95 40.59 1 5.12 51.18 1 
13.92 56.82 1 18.08 59.33 1 20.25 63.83 1 
12.07 55.7 2 9.95 51.53 2 23.78 38 2 
22.95 40.59 2 5.12 51.18 2 13.92 56.82 2 
18.08 59.33 2 20.25 63.83 2 12.07 55.7 3 
9.95 51.53 3 23.78 38 3 22.95 40.59 3 
5.12 51.18 3 13.92 56.82 3 18.08 59.33 3 
20.25 63.83 3 12.07 55.7 4 9.95 51.53 4 
23.78 38 4 22.95 40.59 4 5.12 51.18 4 
13.92 56.82 4 18.08 59.33 4 20.25 63.83 4 
12.07 55.7 5 9.95 51.53 5 23.78 38 5 
22.95 40.59 5 5.12 51.18 5 13.92 56.82 5 
18.08 59.33 5 20.25 63.83 5 12.07 55.7 6 
9.95 51.53 6 23.78 38 6 22.95 40.59 6 
5.12 51.18 6 13.92 56.82 6 18.08 59.33 6 
20.25 63.83 6 12.07 55.7 7 9.95 51.53 7 
23.78 38 7 22.95 40.59 7 5.12 51.18 7 
13.92 56.82 7 18.08 59.33 7 20.25 63.83 7 
12.07 55.7 8 9.95 51.53 8 23.78 38 8 
22.95 40.59 8 5.12 51.18 8 13.92 56.82 8 
18.08 59.33 8 20.25 63.83 8 12.07 55.7 9 
9.95 51.53 9 23.78 38 9 22.95 40.59 9 
5.12 51.18 9 13.92 56.82 9 18.08 59.33 9 
20.25 63.83 9 
VERTICES 89 88
OFFSETS vtktypeint64
0 1 2 3 4 5 6 7 8 
9 10 11 12 13 14 15 16 17 
18 19 20 21 22 23 24 25 26 
27 28 29 30 31 32 33 34 35 
36 37 38 39 40 41 42 43 44 
45 46 47 48 49 50 51 52 53 
54 55 56 57 58 59 60 61 62 
63 64 65 66 67 68 69 70 71 
72 73 74 75 76 77 78 79 80 
81 82 83 84 85 86 87 88 
CONNECTIVITY vtktypeint64
0 1 2 3 4 5 6 7 8 
9 10 11 12 13 14 15 16 17 
18 19 20 21 22 23 24 25 26 
27 28 29 30 31 32 33 34 35 
36 37 38 39 40 41 42 43 44 
45 46 47 48 49 50 51 52 53 
54 55 56 57 58 59 60 61 62 
63 64 65 66 67 68 69 70 71 
72 73 74 75 76 77 78 79 80 
81 82 83 84 85 86 87 
POINT_DATA 88
SCALARS I131 double
LOOKUP_TABLE default
0.001805 0.0017 0.03 0.01 0.00184 0.00103 0.00176 0.00185 0.001805 
0.0017 0.03 0.01 0.00184 0.00103 0.00176 0.00185 0.001805 0.0017 
0.03 0.01 0.00184 0.00103 0.00176 0.00185 0.001805 0.0017 0.03 
0.01 0.00184 0.00103 0.00176 0.00185 0.001805 0.0017 0.03 0.01 
0.00184 0.00103 0.00176 0.00185 0.001805 0.0017 0.03 0.01 0.00184 
0.00103 0.00176 0.00185 0.001805 0.0017 0.03 0.01 0.00184 0.00103 
0.00176 0.00185 0.001805 0.0017 0.03 0.01 0.00184 0.00103 0.00176 
0.00185 0.001805 0.0017 0.03 0.01 0.00184 0.00103 0.00176 0.00185 
0.001805 0.0017 0.03 0.01 0.00184 0.00103 0.00176 0.00185 0.001805 
0.0017 0.03 0.01 0.00184 0.00103 0.00176 0.00185 
FIELD FieldData 2
CS134 1 88 double
0.001221 0.001 0 0 0.00071 0.00107 0.00132 0.00147 0.001221 
0.001 0 0 0.00071 0.00107 0.00132 0.00147 0.001221 0.001 
0 0 0.00071 0.00107 0.00132 0.00147 0.001221 0.001 0 
0 0.00071 0.00107 0.00132 0.00147 0.001221 0.001 0 0 
0.00071 0.00107 0.00132 0.00147 0.001221 0.001 0 0 0.00071 
0.00107 0.00132 0.00147 0.001221 0.001 0 0 0.00071 0.00107 
0.00132 0.00147 0.001221 0.001 0 0 0.00071 0.00107 0.00132 
0.00147 0.001221 0.001 0 0 0.00071 0.00107 0.00132 0.00147 
0.001221 0.001 0 0 0.00071 0.00107 0.00132 0.00147 0.001221 
0.001 0 0 0.00071 0.00107 0.00132 0.00147 
CS137 1 88 double
0.002275 0.0018 0 0 0.00146 0.00188 0.00232 0.00261 0.002275 
0.0018 0 0 0.00146 0.00188 0.00232 0.00261 0.002275 0.0018 
0 0 0.00146 0.00188 0.00232 0.00261 0.002275 0.0018 0 
0 0.00146 0.00188 0.00232 0.00261 0.002275 0.0018 0 0 
0.00146 0.00188 0.00232 0.00261 0.002275 0.0018 0 0 0.00146 
0.00188 0.00232 0.00261 0.002275 0.0018 0 0 0.00146 0.00188 
0.00232 0.00261 0.002275 0.0018 0 0 0.00146 0.00188 0.00232 
0.00261 0.002275 0.0018 0 0 0.00146 0.00188 0.00232 0.00261 
0.002275 0.0018 0 0 0.00146 0.00188 0.00232 0.00261 0.002275 
0.0018 0 0 0.00146 0.00188 0.00232 0.00261 
