# vtk DataFile Version 5.1
vtk output
ASCII
DATASET POLYDATA
POINTS 11 double
7.15 53.71 0 7.15 53.71 0 7.15 53.71 1 
7.15 53.71 2 7.15 53.71 3 7.15 53.71 4 
7.15 53.71 5 7.15 53.71 6 7.15 53.71 7 
7.15 53.71 8 7.15 53.71 9 
VERTICES 12 11
OFFSETS vtktypeint64
0 1 2 3 4 5 6 7 8 
9 10 11 
CONNECTIVITY vtktypeint64
0 1 2 3 4 5 6 7 8 
9 10 
POINT_DATA 11
SCALARS I131 double
LOOKUP_TABLE default
0 0 0 0 0 0 0 0 0 
0 0 
FIELD FieldData 2
CS134 1 11 double
0 0 0 0 0 0 0 0 0 
0 0 
CS137 1 11 double
7e-05 7e-05 7e-05 7e-05 7e-05 7e-05 7e-05 7e-05 7e-05 
7e-05 7e-05 
