# vtk DataFile Version 5.1
vtk output
ASCII
DATASET POLYDATA
POINTS 220 double
12.07 55.7 0 9.95 51.53 0 0.25 47.15 0 
4.8 44.63 0 2.31 51 0 2.36 48.85 0 
16.63 40.17 0 5.18 52.11 0 23.78 38 0 
-4.83 56 0 5.12 51.18 0 7.42 46.42 0 
14.33 46.63 0 24.7 60.45 0 12 57.75 0 
13.92 56.82 0 14.67 63.17 0 18.08 59.33 0 
20.25 63.83 0 21.25 48.73 0 12.07 55.7 0 
9.95 51.53 0 0.25 47.15 0 4.8 44.63 0 
2.31 51 0 2.36 48.85 0 16.63 40.17 0 
5.18 52.11 0 23.78 38 0 -4.83 56 0 
5.12 51.18 0 7.42 46.42 0 14.33 46.63 0 
24.7 60.45 0 12 57.75 0 13.92 56.82 0 
14.67 63.17 0 18.08 59.33 0 20.25 63.83 0 
21.25 48.73 0 12.07 55.7 1 9.95 51.53 1 
0.25 47.15 1 4.8 44.63 1 2.31 51 1 
2.36 48.85 1 16.63 40.17 1 5.18 52.11 1 
23.78 38 1 -4.83 56 1 5.12 51.18 1 
7.42 46.42 1 14.33 46.63 1 24.7 60.45 1 
12 57.75 1 13.92 56.82 1 14.67 63.17 1 
18.08 59.33 1 20.25 63.83 1 21.25 48.73 1 
12.07 55.7 2 9.95 51.53 2 0.25 47.15 2 
4.8 44.63 2 2.31 51 2 2.36 48.85 2 
16.63 40.17 2 5.18 52.11 2 23.78 38 2 
-4.83 56 2 5.12 51.18 2 7.42 46.42 2 
14.33 46.63 2 24.7 60.45 2 12 57.75 2 
13.92 56.82 2 14.67 63.17 2 18.08 59.33 2 
20.25 63.83 2 21.25 48.73 2 12.07 55.7 3 
9.95 51.53 3 0.25 47.15 3 4.8 44.63 3 
2.31 51 3 2.36 48.85 3 16.63 40.17 3 
5.18 52.11 3 23.78 38 3 -4.83 56 3 
5.12 51.18 3 7.42 46.42 3 14.33 46.63 3 
24.7 60.45 3 12 57.75 3 13.92 56.82 3 
14.67 63.17 3 18.08 59.33 3 20.25 63.83 3 
21.25 48.73 3 12.07 55.7 4 9.95 51.53 4 
0.25 47.15 4 4.8 44.63 4 2.31 51 4 
2.36 48.85 4 16.63 40.17 4 5.18 52.11 4 
23.78 38 4 -4.83 56 4 5.12 51.18 4 
7.42 46.42 4 14.33 46.63 4 24.7 60.45 4 
12 57.75 4 13.92 56.82 4 14.67 63.17 4 
18.08 59.33 4 20.25 63.83 4 21.25 48.73 4 
12.07 55.7 5 9.95 51.53 5 0.25 47.15 5 
4.8 44.63 5 2.31 51 5 2.36 48.85 5 
16.63 40.17 5 5.18 52.11 5 23.78 38 5 
-4.83 56 5 5.12 51.18 5 7.42 46.42 5 
14.33 46.63 5 24.7 60.45 5 12 57.75 5 
13.92 56.82 5 14.67 63.17 5 18.08 59.33 5 
20.25 63.83 5 21.25 48.73 5 12.07 55.7 6 
9.95 51.53 6 0.25 47.15 6 4.8 44.63 6 
2.31 51 6 2.36 48.85 6 16.63 40.17 6 
5.18 52.11 6 23.78 38 6 -4.83 56 6 
5.12 51.18 6 7.42 46.42 6 14.33 46.63 6 
24.7 60.45 6 12 57.75 6 13.92 56.82 6 
14.67 63.17 6 18.08 59.33 6 20.25 63.83 6 
21.25 48.73 6 12.07 55.7 7 9.95 51.53 7 
0.25 47.15 7 4.8 44.63 7 2.31 51 7 
2.36 48.85 7 16.63 40.17 7 5.18 52.11 7 
23.78 38 7 -4.83 56 7 5.12 51.18 7 
7.42 46.42 7 14.33 46.63 7 24.7 60.45 7 
12 57.75 7 13.92 56.82 7 14.67 63.17 7 
18.08 59.33 7 20.25 63.83 7 21.25 48.73 7 
12.07 55.7 8 9.95 51.53 8 0.25 47.15 8 
4.8 44.63 8 2.31 51 8 2.36 48.85 8 
16.63 40.17 8 5.18 52.11 8 23.78 38 8 
-4.83 56 8 5.12 51.18 8 7.42 46.42 8 
14.33 46.63 8 24.7 60.45 8 12 57.75 8 
13.92 56.82 8 14.67 63.17 8 18.08 59.33 8 
20.25 63.83 8 21.25 48.73 8 12.07 55.7 9 
9.95 51.53 9 0.25 47.15 9 4.8 44.63 9 
2.31 51 9 2.36 48.85 9 16.63 40.17 9 
5.18 52.11 9 23.78 38 9 -4.83 56 9 
5.12 51.18 9 7.42 46.42 9 14.33 46.63 9 
24.7 60.45 9 12 57.75 9 13.92 56.82 9 
14.67 63.17 9 18.08 59.33 9 20.25 63.83 9 
21.25 48.73 9 
VERTICES 221 220
OFFSETS vtktypeint64
0 1 2 3 4 5 6 7 8 
9 10 11 12 13 14 15 16 17 
18 19 20 21 22 23 24 25 26 
27 28 29 30 31 32 33 34 35 
36 37 38 39 40 41 42 43 44 
45 46 47 48 49 50 51 52 53 
54 55 56 57 58 59 60 61 62 
63 64 65 66 67 68 69 70 71 
72 73 74 75 76 77 78 79 80 
81 82 83 84 85 86 87 88 89 
90 91 92 93 94 95 96 97 98 
99 100 101 102 103 104 105 106 107 
108 109 110 111 112 113 114 115 116 
117 118 119 120 121 122 123 124 125 
126 127 128 129 130 131 132 133 134 
135 136 137 138 139 140 141 142 143 
144 145 146 147 148 149 150 151 152 
153 154 155 156 157 158 159 160 161 
162 163 164 165 166 167 168 169 170 
171 172 173 174 175 176 177 178 179 
180 181 182 183 184 185 186 187 188 
189 190 191 192 193 194 195 196 197 
198 199 200 201 202 203 204 205 206 
207 208 209 210 211 212 213 214 215 
216 217 218 219 220 
CONNECTIVITY vtktypeint64
0 1 2 3 4 5 6 7 8 
9 10 11 12 13 14 15 16 17 
18 19 20 21 22 23 24 25 26 
27 28 29 30 31 32 33 34 35 
36 37 38 39 40 41 42 43 44 
45 46 47 48 49 50 51 52 53 
54 55 56 57 58 59 60 61 62 
63 64 65 66 67 68 69 70 71 
72 73 74 75 76 77 78 79 80 
81 82 83 84 85 86 87 88 89 
90 91 92 93 94 95 96 97 98 
99 100 101 102 103 104 105 106 107 
108 109 110 111 112 113 114 115 116 
117 118 119 120 121 122 123 124 125 
126 127 128 129 130 131 132 133 134 
135 136 137 138 139 140 141 142 143 
144 145 146 147 148 149 150 151 152 
153 154 155 156 157 158 159 160 161 
162 163 164 165 166 167 168 169 170 
171 172 173 174 175 176 177 178 179 
180 181 182 183 184 185 186 187 188 
189 190 191 192 193 194 195 196 197 
198 199 200 201 202 203 204 205 206 
207 208 209 210 211 212 213 214 215 
216 217 218 219 
POINT_DATA 220
SCALARS I131 double
LOOKUP_TABLE default
0.001505 0.0062 0.0044 0.0028 0.0052 0.0022 0.005 0.007 0.12 
0.0027 0.0036 0.0035 0.009139 0 0.00233 0.002 0.00998 0.00331 
0.00259 0.034 0.001505 0.0062 0.0044 0.0028 0.0052 0.0022 0.005 
0.007 0.12 0.0027 0.0036 0.0035 0.009139 0 0.00233 0.002 
0.00998 0.00331 0.00259 0.034 0.001505 0.0062 0.0044 0.0028 0.0052 
0.0022 0.005 0.007 0.12 0.0027 0.0036 0.0035 0.009139 0 
0.00233 0.002 0.00998 0.00331 0.00259 0.034 0.001505 0.0062 0.0044 
0.0028 0.0052 0.0022 0.005 0.007 0.12 0.0027 0.0036 0.0035 
0.009139 0 0.00233 0.002 0.00998 0.00331 0.00259 0.034 0.001505 
0.0062 0.0044 0.0028 0.0052 0.0022 0.005 0.007 0.12 0.0027 
0.0036 0.0035 0.009139 0 0.00233 0.002 0.00998 0.00331 0.00259 
0.034 0.001505 0.0062 0.0044 0.0028 0.0052 0.0022 0.005 0.007 
0.12 0.0027 0.0036 0.0035 0.009139 0 0.00233 0.002 0.00998 
0.00331 0.00259 0.034 0.001505 0.0062 0.0044 0.0028 0.0052 0.0022 
0.005 0.007 0.12 0.0027 0.0036 0.0035 0.009139 0 0.00233 
0.002 0.00998 0.00331 0.00259 0.034 0.001505 0.0062 0.0044 0.0028 
0.0052 0.0022 0.005 0.007 0.12 0.0027 0.0036 0.0035 0.009139 
0 0.00233 0.002 0.00998 0.00331 0.00259 0.034 0.001505 0.0062 
0.0044 0.0028 0.0052 0.0022 0.005 0.007 0.12 0.0027 0.0036 
0.0035 0.009139 0 0.00233 0.002 0.00998 0.00331 0.00259 0.034 
0.001505 0.0062 0.0044 0.0028 0.0052 0.0022 0.005 0.007 0.12 
0.0027 0.0036 0.0035 0.009139 0 0.00233 0.002 0.00998 0.00331 
0.00259 0.034 0.001505 0.0062 0.0044 0.0028 0.0052 0.0022 0.005 
0.007 0.12 0.0027 0.0036 0.0035 0.009139 0 0.00233 0.002 
0.00998 0.00331 0.00259 0.034 
FIELD FieldData 2
CS134 1 220 double
0.000169 0.0016 0 0 0 0.001 0.001 0 0 
0.0009 0.00066 0 0.001912 0.00037 0.000589 0.00056 0.00197 0.000644 
0.0011 0.0031 0.000169 0.0016 0 0 0 0.001 0.001 
0 0 0.0009 0.00066 0 0.001912 0.00037 0.000589 0.00056 
0.00197 0.000644 0.0011 0.0031 0.000169 0.0016 0 0 0 
0.001 0.001 0 0 0.0009 0.00066 0 0.001912 0.00037 
0.000589 0.00056 0.00197 0.000644 0.0011 0.0031 0.000169 0.0016 0 
0 0 0.001 0.001 0 0 0.0009 0.00066 0 
0.001912 0.00037 0.000589 0.00056 0.00197 0.000644 0.0011 0.0031 0.000169 
0.0016 0 0 0 0.001 0.001 0 0 0.0009 
0.00066 0 0.001912 0.00037 0.000589 0.00056 0.00197 0.000644 0.0011 
0.0031 0.000169 0.0016 0 0 0 0.001 0.001 0 
0 0.0009 0.00066 0 0.001912 0.00037 0.000589 0.00056 0.00197 
0.000644 0.0011 0.0031 0.000169 0.0016 0 0 0 0.001 
0.001 0 0 0.0009 0.00066 0 0.001912 0.00037 0.000589 
0.00056 0.00197 0.000644 0.0011 0.0031 0.000169 0.0016 0 0 
0 0.001 0.001 0 0 0.0009 0.00066 0 0.001912 
0.00037 0.000589 0.00056 0.00197 0.000644 0.0011 0.0031 0.000169 0.0016 
0 0 0 0.001 0.001 0 0 0.0009 0.00066 
0 0.001912 0.00037 0.000589 0.00056 0.00197 0.000644 0.0011 0.0031 
0.000169 0.0016 0 0 0 0.001 0.001 0 0 
0.0009 0.00066 0 0.001912 0.00037 0.000589 0.00056 0.00197 0.000644 
0.0011 0.0031 0.000169 0.0016 0 0 0 0.001 0.001 
0 0 0.0009 0.00066 0 0.001912 0.00037 0.000589 0.00056 
0.00197 0.000644 0.0011 0.0031 
CS137 1 220 double
0.000292 0.0035 0 0 0 0.002 0.003 0.005 0 
0.002 0.00126 0.0005 0.003182 0.0007 0.000977 0.000973 0.00336 0.00112 
0.00186 0.0059 0.000292 0.0035 0 0 0 0.002 0.003 
0.005 0 0.002 0.00126 0.0005 0.003182 0.0007 0.000977 0.000973 
0.00336 0.00112 0.00186 0.0059 0.000292 0.0035 0 0 0 
0.002 0.003 0.005 0 0.002 0.00126 0.0005 0.003182 0.0007 
0.000977 0.000973 0.00336 0.00112 0.00186 0.0059 0.000292 0.0035 0 
0 0 0.002 0.003 0.005 0 0.002 0.00126 0.0005 
0.003182 0.0007 0.000977 0.000973 0.00336 0.00112 0.00186 0.0059 0.000292 
0.0035 0 0 0 0.002 0.003 0.005 0 0.002 
0.00126 0.0005 0.003182 0.0007 0.000977 0.000973 0.00336 0.00112 0.00186 
0.0059 0.000292 0.0035 0 0 0 0.002 0.003 0.005 
0 0.002 0.00126 0.0005 0.003182 0.0007 0.000977 0.000973 0.00336 
0.00112 0.00186 0.0059 0.000292 0.0035 0 0 0 0.002 
0.003 0.005 0 0.002 0.00126 0.0005 0.003182 0.0007 0.000977 
0.000973 0.00336 0.00112 0.00186 0.0059 0.000292 0.0035 0 0 
0 0.002 0.003 0.005 0 0.002 0.00126 0.0005 0.003182 
0.0007 0.000977 0.000973 0.00336 0.00112 0.00186 0.0059 0.000292 0.0035 
0 0 0 0.002 0.003 0.005 0 0.002 0.00126 
0.0005 0.003182 0.0007 0.000977 0.000973 0.00336 0.00112 0.00186 0.0059 
0.000292 0.0035 0 0 0 0.002 0.003 0.005 0 
0.002 0.00126 0.0005 0.003182 0.0007 0.000977 0.000973 0.00336 0.00112 
0.00186 0.0059 0.000292 0.0035 0 0 0 0.002 0.003 
0.005 0 0.002 0.00126 0.0005 0.003182 0.0007 0.000977 0.000973 
0.00336 0.00112 0.00186 0.0059 
