# vtk DataFile Version 5.1
vtk output
ASCII
DATASET POLYDATA
POINTS 1144 double
12.07 55.7 0 12.07 55.7 0 10.59 49.3 0 
13.42 52.5 0 12.78 49.2 0 9.95 51.53 0 
9.95 51.53 0 9.73 52.38 0 8.67 49 0 
8.67 49 0 7.65 51.11 0 11.58 48.13 0 
7.15 53.71 0 8.77 50.1 0 8.94 48.46 0 
10.75 52.81 0 5.75 43.71 0 0.25 47.15 0 
4.81 50.1 0 4.8 44.63 0 -1.9 49.55 0 
2.31 51 0 5.72 45.18 0 4.8 44.13 0 
7.42 43.73 0 2.18 48.68 0 2.36 48.85 0 
2.16 48.73 0 4.73 44.33 0 5.38 49.15 0 
11.33 44.48 0 11.33 44.48 0 12.3 42.03 0 
12.3 42.03 0 12.3 42.03 0 12.3 42.03 0 
12.3 42.03 0 12.3 42.03 0 12.3 42.03 0 
12.3 42.03 0 12.3 42.03 0 12.3 42.03 0 
12.3 42.03 0 8.63 45.8 0 8.63 45.8 0 
8.63 45.8 0 8.63 45.8 0 8.63 45.8 0 
8.63 45.8 0 8.63 45.8 0 8.63 45.8 0 
8.63 45.8 0 8.63 45.8 0 8.63 45.8 0 
8.63 45.8 0 8.02 45.21 0 16.63 40.17 0 
16.63 40.17 0 4.38 52 0 6.53 53.25 0 
6.53 53.25 0 23.78 38 0 21.79 40.31 0 
22.95 40.59 0 -2.45 51.69 0 -2.45 51.69 0 
-4.83 56 0 5.12 51.18 0 5.12 51.18 0 
-0.4 39.48 0 7.12 46.49 0 7.42 46.42 0 
9.78 47.51 0 11.41 47.28 0 11.41 47.28 0 
11.41 47.28 0 14.33 46.63 0 14.33 46.63 0 
14.33 46.63 0 14.3 48.31 0 14.3 48.31 0 
14.3 48.31 0 14.3 48.31 0 13.05 47.9 0 
24.7 60.45 0 10.66 59.9 0 10.66 59.9 0 
9.8 59.9 0 9.8 59.9 0 9.8 59.9 0 
9.8 59.9 0 10.95 63.45 0 12 57.75 0 
13.92 56.82 0 13.92 56.82 0 13.92 56.82 0 
13.92 56.82 0 18.08 59.33 0 18.08 59.33 0 
20.25 63.83 0 20.25 63.83 0 48.5 17.45 0 
21.25 48.73 0 19.1 47.5 0 12.07 55.7 0 
12.07 55.7 0 10.59 49.3 0 13.42 52.5 0 
12.78 49.2 0 9.95 51.53 0 9.95 51.53 0 
9.73 52.38 0 8.67 49 0 8.67 49 0 
7.65 51.11 0 11.58 48.13 0 7.15 53.71 0 
8.77 50.1 0 8.94 48.46 0 10.75 52.81 0 
5.75 43.71 0 0.25 47.15 0 4.81 50.1 0 
4.8 44.63 0 -1.9 49.55 0 2.31 51 0 
5.72 45.18 0 4.8 44.13 0 7.42 43.73 0 
2.18 48.68 0 2.36 48.85 0 2.16 48.73 0 
4.73 44.33 0 5.38 49.15 0 11.33 44.48 0 
11.33 44.48 0 12.3 42.03 0 12.3 42.03 0 
12.3 42.03 0 12.3 42.03 0 12.3 42.03 0 
12.3 42.03 0 12.3 42.03 0 12.3 42.03 0 
12.3 42.03 0 12.3 42.03 0 12.3 42.03 0 
8.63 45.8 0 8.63 45.8 0 8.63 45.8 0 
8.63 45.8 0 8.63 45.8 0 8.63 45.8 0 
8.63 45.8 0 8.63 45.8 0 8.63 45.8 0 
8.63 45.8 0 8.63 45.8 0 8.63 45.8 0 
8.02 45.21 0 16.63 40.17 0 16.63 40.17 0 
4.38 52 0 6.53 53.25 0 6.53 53.25 0 
23.78 38 0 21.79 40.31 0 22.95 40.59 0 
-2.45 51.69 0 -2.45 51.69 0 -4.83 56 0 
5.12 51.18 0 5.12 51.18 0 -0.4 39.48 0 
7.12 46.49 0 7.42 46.42 0 9.78 47.51 0 
11.41 47.28 0 11.41 47.28 0 11.41 47.28 0 
14.33 46.63 0 14.33 46.63 0 14.33 46.63 0 
14.3 48.31 0 14.3 48.31 0 14.3 48.31 0 
14.3 48.31 0 13.05 47.9 0 24.7 60.45 0 
10.66 59.9 0 10.66 59.9 0 9.8 59.9 0 
9.8 59.9 0 9.8 59.9 0 9.8 59.9 0 
10.95 63.45 0 12 57.75 0 13.92 56.82 0 
13.92 56.82 0 13.92 56.82 0 13.92 56.82 0 
18.08 59.33 0 18.08 59.33 0 20.25 63.83 0 
20.25 63.83 0 48.5 17.45 0 21.25 48.73 0 
19.1 47.5 0 12.07 55.7 1 12.07 55.7 1 
10.59 49.3 1 13.42 52.5 1 12.78 49.2 1 
9.95 51.53 1 9.95 51.53 1 9.73 52.38 1 
8.67 49 1 8.67 49 1 7.65 51.11 1 
11.58 48.13 1 7.15 53.71 1 8.77 50.1 1 
8.94 48.46 1 10.75 52.81 1 5.75 43.71 1 
0.25 47.15 1 4.81 50.1 1 4.8 44.63 1 
-1.9 49.55 1 2.31 51 1 5.72 45.18 1 
4.8 44.13 1 7.42 43.73 1 2.18 48.68 1 
2.36 48.85 1 2.16 48.73 1 4.73 44.33 1 
5.38 49.15 1 11.33 44.48 1 11.33 44.48 1 
12.3 42.03 1 12.3 42.03 1 12.3 42.03 1 
12.3 42.03 1 12.3 42.03 1 12.3 42.03 1 
12.3 42.03 1 12.3 42.03 1 12.3 42.03 1 
12.3 42.03 1 12.3 42.03 1 8.63 45.8 1 
8.63 45.8 1 8.63 45.8 1 8.63 45.8 1 
8.63 45.8 1 8.63 45.8 1 8.63 45.8 1 
8.63 45.8 1 8.63 45.8 1 8.63 45.8 1 
8.63 45.8 1 8.63 45.8 1 8.02 45.21 1 
16.63 40.17 1 16.63 40.17 1 4.38 52 1 
6.53 53.25 1 6.53 53.25 1 23.78 38 1 
21.79 40.31 1 22.95 40.59 1 -2.45 51.69 1 
-2.45 51.69 1 -4.83 56 1 5.12 51.18 1 
5.12 51.18 1 -0.4 39.48 1 7.12 46.49 1 
7.42 46.42 1 9.78 47.51 1 11.41 47.28 1 
11.41 47.28 1 11.41 47.28 1 14.33 46.63 1 
14.33 46.63 1 14.33 46.63 1 14.3 48.31 1 
14.3 48.31 1 14.3 48.31 1 14.3 48.31 1 
13.05 47.9 1 24.7 60.45 1 10.66 59.9 1 
10.66 59.9 1 9.8 59.9 1 9.8 59.9 1 
9.8 59.9 1 9.8 59.9 1 10.95 63.45 1 
12 57.75 1 13.92 56.82 1 13.92 56.82 1 
13.92 56.82 1 13.92 56.82 1 18.08 59.33 1 
18.08 59.33 1 20.25 63.83 1 20.25 63.83 1 
48.5 17.45 1 21.25 48.73 1 19.1 47.5 1 
12.07 55.7 2 12.07 55.7 2 10.59 49.3 2 
13.42 52.5 2 12.78 49.2 2 9.95 51.53 2 
9.95 51.53 2 9.73 52.38 2 8.67 49 2 
8.67 49 2 7.65 51.11 2 11.58 48.13 2 
7.15 53.71 2 8.77 50.1 2 8.94 48.46 2 
10.75 52.81 2 5.75 43.71 2 0.25 47.15 2 
4.81 50.1 2 4.8 44.63 2 -1.9 49.55 2 
2.31 51 2 5.72 45.18 2 4.8 44.13 2 
7.42 43.73 2 2.18 48.68 2 2.36 48.85 2 
2.16 48.73 2 4.73 44.33 2 5.38 49.15 2 
11.33 44.48 2 11.33 44.48 2 12.3 42.03 2 
12.3 42.03 2 12.3 42.03 2 12.3 42.03 2 
12.3 42.03 2 12.3 42.03 2 12.3 42.03 2 
12.3 42.03 2 12.3 42.03 2 12.3 42.03 2 
12.3 42.03 2 8.63 45.8 2 8.63 45.8 2 
8.63 45.8 2 8.63 45.8 2 8.63 45.8 2 
8.63 45.8 2 8.63 45.8 2 8.63 45.8 2 
8.63 45.8 2 8.63 45.8 2 8.63 45.8 2 
8.63 45.8 2 8.02 45.21 2 16.63 40.17 2 
16.63 40.17 2 4.38 52 2 6.53 53.25 2 
6.53 53.25 2 23.78 38 2 21.79 40.31 2 
22.95 40.59 2 -2.45 51.69 2 -2.45 51.69 2 
-4.83 56 2 5.12 51.18 2 5.12 51.18 2 
-0.4 39.48 2 7.12 46.49 2 7.42 46.42 2 
9.78 47.51 2 11.41 47.28 2 11.41 47.28 2 
11.41 47.28 2 14.33 46.63 2 14.33 46.63 2 
14.33 46.63 2 14.3 48.31 2 14.3 48.31 2 
14.3 48.31 2 14.3 48.31 2 13.05 47.9 2 
24.7 60.45 2 10.66 59.9 2 10.66 59.9 2 
9.8 59.9 2 9.8 59.9 2 9.8 59.9 2 
9.8 59.9 2 10.95 63.45 2 12 57.75 2 
13.92 56.82 2 13.92 56.82 2 13.92 56.82 2 
13.92 56.82 2 18.08 59.33 2 18.08 59.33 2 
20.25 63.83 2 20.25 63.83 2 48.5 17.45 2 
21.25 48.73 2 19.1 47.5 2 12.07 55.7 3 
12.07 55.7 3 10.59 49.3 3 13.42 52.5 3 
12.78 49.2 3 9.95 51.53 3 9.95 51.53 3 
9.73 52.38 3 8.67 49 3 8.67 49 3 
7.65 51.11 3 11.58 48.13 3 7.15 53.71 3 
8.77 50.1 3 8.94 48.46 3 10.75 52.81 3 
5.75 43.71 3 0.25 47.15 3 4.81 50.1 3 
4.8 44.63 3 -1.9 49.55 3 2.31 51 3 
5.72 45.18 3 4.8 44.13 3 7.42 43.73 3 
2.18 48.68 3 2.36 48.85 3 2.16 48.73 3 
4.73 44.33 3 5.38 49.15 3 11.33 44.48 3 
11.33 44.48 3 12.3 42.03 3 12.3 42.03 3 
12.3 42.03 3 12.3 42.03 3 12.3 42.03 3 
12.3 42.03 3 12.3 42.03 3 12.3 42.03 3 
12.3 42.03 3 12.3 42.03 3 12.3 42.03 3 
8.63 45.8 3 8.63 45.8 3 8.63 45.8 3 
8.63 45.8 3 8.63 45.8 3 8.63 45.8 3 
8.63 45.8 3 8.63 45.8 3 8.63 45.8 3 
8.63 45.8 3 8.63 45.8 3 8.63 45.8 3 
8.02 45.21 3 16.63 40.17 3 16.63 40.17 3 
4.38 52 3 6.53 53.25 3 6.53 53.25 3 
23.78 38 3 21.79 40.31 3 22.95 40.59 3 
-2.45 51.69 3 -2.45 51.69 3 -4.83 56 3 
5.12 51.18 3 5.12 51.18 3 -0.4 39.48 3 
7.12 46.49 3 7.42 46.42 3 9.78 47.51 3 
11.41 47.28 3 11.41 47.28 3 11.41 47.28 3 
14.33 46.63 3 14.33 46.63 3 14.33 46.63 3 
14.3 48.31 3 14.3 48.31 3 14.3 48.31 3 
14.3 48.31 3 13.05 47.9 3 24.7 60.45 3 
10.66 59.9 3 10.66 59.9 3 9.8 59.9 3 
9.8 59.9 3 9.8 59.9 3 9.8 59.9 3 
10.95 63.45 3 12 57.75 3 13.92 56.82 3 
13.92 56.82 3 13.92 56.82 3 13.92 56.82 3 
18.08 59.33 3 18.08 59.33 3 20.25 63.83 3 
20.25 63.83 3 48.5 17.45 3 21.25 48.73 3 
19.1 47.5 3 12.07 55.7 4 12.07 55.7 4 
10.59 49.3 4 13.42 52.5 4 12.78 49.2 4 
9.95 51.53 4 9.95 51.53 4 9.73 52.38 4 
8.67 49 4 8.67 49 4 7.65 51.11 4 
11.58 48.13 4 7.15 53.71 4 8.77 50.1 4 
8.94 48.46 4 10.75 52.81 4 5.75 43.71 4 
0.25 47.15 4 4.81 50.1 4 4.8 44.63 4 
-1.9 49.55 4 2.31 51 4 5.72 45.18 4 
4.8 44.13 4 7.42 43.73 4 2.18 48.68 4 
2.36 48.85 4 2.16 48.73 4 4.73 44.33 4 
5.38 49.15 4 11.33 44.48 4 11.33 44.48 4 
12.3 42.03 4 12.3 42.03 4 12.3 42.03 4 
12.3 42.03 4 12.3 42.03 4 12.3 42.03 4 
12.3 42.03 4 12.3 42.03 4 12.3 42.03 4 
12.3 42.03 4 12.3 42.03 4 8.63 45.8 4 
8.63 45.8 4 8.63 45.8 4 8.63 45.8 4 
8.63 45.8 4 8.63 45.8 4 8.63 45.8 4 
8.63 45.8 4 8.63 45.8 4 8.63 45.8 4 
8.63 45.8 4 8.63 45.8 4 8.02 45.21 4 
16.63 40.17 4 16.63 40.17 4 4.38 52 4 
6.53 53.25 4 6.53 53.25 4 23.78 38 4 
21.79 40.31 4 22.95 40.59 4 -2.45 51.69 4 
-2.45 51.69 4 -4.83 56 4 5.12 51.18 4 
5.12 51.18 4 -0.4 39.48 4 7.12 46.49 4 
7.42 46.42 4 9.78 47.51 4 11.41 47.28 4 
11.41 47.28 4 11.41 47.28 4 14.33 46.63 4 
14.33 46.63 4 14.33 46.63 4 14.3 48.31 4 
14.3 48.31 4 14.3 48.31 4 14.3 48.31 4 
13.05 47.9 4 24.7 60.45 4 10.66 59.9 4 
10.66 59.9 4 9.8 59.9 4 9.8 59.9 4 
9.8 59.9 4 9.8 59.9 4 10.95 63.45 4 
12 57.75 4 13.92 56.82 4 13.92 56.82 4 
13.92 56.82 4 13.92 56.82 4 18.08 59.33 4 
18.08 59.33 4 20.25 63.83 4 20.25 63.83 4 
48.5 17.45 4 21.25 48.73 4 19.1 47.5 4 
12.07 55.7 5 12.07 55.7 5 10.59 49.3 5 
13.42 52.5 5 12.78 49.2 5 9.95 51.53 5 
9.95 51.53 5 9.73 52.38 5 8.67 49 5 
8.67 49 5 7.65 51.11 5 11.58 48.13 5 
7.15 53.71 5 8.77 50.1 5 8.94 48.46 5 
10.75 52.81 5 5.75 43.71 5 0.25 47.15 5 
4.81 50.1 5 4.8 44.63 5 -1.9 49.55 5 
2.31 51 5 5.72 45.18 5 4.8 44.13 5 
7.42 43.73 5 2.18 48.68 5 2.36 48.85 5 
2.16 48.73 5 4.73 44.33 5 5.38 49.15 5 
11.33 44.48 5 11.33 44.48 5 12.3 42.03 5 
12.3 42.03 5 12.3 42.03 5 12.3 42.03 5 
12.3 42.03 5 12.3 42.03 5 12.3 42.03 5 
12.3 42.03 5 12.3 42.03 5 12.3 42.03 5 
12.3 42.03 5 8.63 45.8 5 8.63 45.8 5 
8.63 45.8 5 8.63 45.8 5 8.63 45.8 5 
8.63 45.8 5 8.63 45.8 5 8.63 45.8 5 
8.63 45.8 5 8.63 45.8 5 8.63 45.8 5 
8.63 45.8 5 8.02 45.21 5 16.63 40.17 5 
16.63 40.17 5 4.38 52 5 6.53 53.25 5 
6.53 53.25 5 23.78 38 5 21.79 40.31 5 
22.95 40.59 5 -2.45 51.69 5 -2.45 51.69 5 
-4.83 56 5 5.12 51.18 5 5.12 51.18 5 
-0.4 39.48 5 7.12 46.49 5 7.42 46.42 5 
9.78 47.51 5 11.41 47.28 5 11.41 47.28 5 
11.41 47.28 5 14.33 46.63 5 14.33 46.63 5 
14.33 46.63 5 14.3 48.31 5 14.3 48.31 5 
14.3 48.31 5 14.3 48.31 5 13.05 47.9 5 
24.7 60.45 5 10.66 59.9 5 10.66 59.9 5 
9.8 59.9 5 9.8 59.9 5 9.8 59.9 5 
9.8 59.9 5 10.95 63.45 5 12 57.75 5 
13.92 56.82 5 13.92 56.82 5 13.92 56.82 5 
13.92 56.82 5 18.08 59.33 5 18.08 59.33 5 
20.25 63.83 5 20.25 63.83 5 48.5 17.45 5 
21.25 48.73 5 19.1 47.5 5 12.07 55.7 6 
12.07 55.7 6 10.59 49.3 6 13.42 52.5 6 
12.78 49.2 6 9.95 51.53 6 9.95 51.53 6 
9.73 52.38 6 8.67 49 6 8.67 49 6 
7.65 51.11 6 11.58 48.13 6 7.15 53.71 6 
8.77 50.1 6 8.94 48.46 6 10.75 52.81 6 
5.75 43.71 6 0.25 47.15 6 4.81 50.1 6 
4.8 44.63 6 -1.9 49.55 6 2.31 51 6 
5.72 45.18 6 4.8 44.13 6 7.42 43.73 6 
[...]
POINT_DATA 1144
SCALARS I131 double
LOOKUP_TABLE default
0.362 0.28 0.622 0.533 0.77 0.79 2 0.444 0 
0 0.425 0.6 0.071 0.37 0.201 0.55 1.4 0.0043 
0.13 0.22 0.004 0.07 0.2405 0.555 1.299999 0.037 0.033 
0 0.23 0.16 0.837 0.651 1.724 0.851 0.812 0.944 
1.121 0.715 0.387 0.464 0.559 1.419 0.206 0.36 0.44 
0.5 0.64 0.62 0.75 1.02 1.44 1.54 2.21 2.15 
2.72 0 0.11 0.142 0 0.14 0.6 13.5 6.8 
5.1 0.003 0.0051 0.006 0.1 0.92 0 0.307 0.3563 
0.1517 1.147 2.516 1.85 0.6808 1.0175 1.5466 1.0445 0.910622 
1.030643 1.25812 1.104495 0 0.09 0.08 0 0 0 
0 0.08 0.206 0.183 0.0886 0.336 0.401 0.0912 0.174 
0.047 0.0459 0.882 0.179 0.42 0.362 0.28 0.622 0.533 
0.77 0.79 2 0.444 0 0 0.425 0.6 0.071 
0.37 0.201 0.55 1.4 0.0043 0.13 0.22 0.004 0.07 
0.2405 0.555 1.299999 0.037 0.033 0 0.23 0.16 0.837 
0.651 1.724 0.851 0.812 0.944 1.121 0.715 0.387 0.464 
0.559 1.419 0.206 0.36 0.44 0.5 0.64 0.62 0.75 
1.02 1.44 1.54 2.21 2.15 2.72 0 0.11 0.142 
0 0.14 0.6 13.5 6.8 5.1 0.003 0.0051 0.006 
0.1 0.92 0 0.307 0.3563 0.1517 1.147 2.516 1.85 
0.6808 1.0175 1.5466 1.0445 0.910622 1.030643 1.25812 1.104495 0 
0.09 0.08 0 0 0 0 0.08 0.206 0.183 
0.0886 0.336 0.401 0.0912 0.174 0.047 0.0459 0.882 0.179 
0.42 0.362 0.28 0.622 0.533 0.77 0.79 2 0.444 
0 0 0.425 0.6 0.071 0.37 0.201 0.55 1.4 
0.0043 0.13 0.22 0.004 0.07 0.2405 0.555 1.299999 0.037 
0.033 0 0.23 0.16 0.837 0.651 1.724 0.851 0.812 
0.944 1.121 0.715 0.387 0.464 0.559 1.419 0.206 0.36 
0.44 0.5 0.64 0.62 0.75 1.02 1.44 1.54 2.21 
2.15 2.72 0 0.11 0.142 0 0.14 0.6 13.5 
6.8 5.1 0.003 0.0051 0.006 0.1 0.92 0 0.307 
0.3563 0.1517 1.147 2.516 1.85 0.6808 1.0175 1.5466 1.0445 
0.910622 1.030643 1.25812 1.104495 0 0.09 0.08 0 0 
0 0 0.08 0.206 0.183 0.0886 0.336 0.401 0.0912 
0.174 0.047 0.0459 0.882 0.179 0.42 0.362 0.28 0.622 
0.533 0.77 0.79 2 0.444 0 0 0.425 0.6 
0.071 0.37 0.201 0.55 1.4 0.0043 0.13 0.22 0.004 
0.07 0.2405 0.555 1.299999 0.037 0.033 0 0.23 0.16 
0.837 0.651 1.724 0.851 0.812 0.944 1.121 0.715 0.387 
0.464 0.559 1.419 0.206 0.36 0.44 0.5 0.64 0.62 
0.75 1.02 1.44 1.54 2.21 2.15 2.72 0 0.11 
0.142 0 0.14 0.6 13.5 6.8 5.1 0.003 0.0051 
0.006 0.1 0.92 0 0.307 0.3563 0.1517 1.147 2.516 
1.85 0.6808 1.0175 1.5466 1.0445 0.910622 1.030643 1.25812 1.104495 
0 0.09 0.08 0 0 0 0 0.08 0.206 
0.183 0.0886 0.336 0.401 0.0912 0.174 0.047 0.0459 0.882 
0.179 0.42 0.362 0.28 0.622 0.533 0.77 0.79 2 
0.444 0 0 0.425 0.6 0.071 0.37 0.201 0.55 
1.4 0.0043 0.13 0.22 0.004 0.07 0.2405 0.555 1.299999 
0.037 0.033 0 0.23 0.16 0.837 0.651 1.724 0.851 
0.812 0.944 1.121 0.715 0.387 0.464 0.559 1.419 0.206 
0.36 0.44 0.5 0.64 0.62 0.75 1.02 1.44 1.54 
2.21 2.15 2.72 0 0.11 0.142 0 0.14 0.6 
13.5 6.8 5.1 0.003 0.0051 0.006 0.1 0.92 0 
0.307 0.3563 0.1517 1.147 2.516 1.85 0.6808 1.0175 1.5466 
1.0445 0.910622 1.030643 1.25812 1.104495 0 0.09 0.08 0 
0 0 0 0.08 0.206 0.183 0.0886 0.336 0.401 
0.0912 0.174 0.047 0.0459 0.882 0.179 0.42 0.362 0.28 
0.622 0.533 0.77 0.79 2 0.444 0 0 0.425 
0.6 0.071 0.37 0.201 0.55 1.4 0.0043 0.13 0.22 
0.004 0.07 0.2405 0.555 1.299999 0.037 0.033 0 0.23 
0.16 0.837 0.651 1.724 0.851 0.812 0.944 1.121 0.715 
0.387 0.464 0.559 1.419 0.206 0.36 0.44 0.5 0.64 
0.62 0.75 1.02 1.44 1.54 2.21 2.15 2.72 0 
0.11 0.142 0 0.14 0.6 13.5 6.8 5.1 0.003 
0.0051 0.006 0.1 0.92 0 0.307 0.3563 0.1517 1.147 
2.516 1.85 0.6808 1.0175 1.5466 1.0445 0.910622 1.030643 1.25812 
1.104495 0 0.09 0.08 0 0 0 0 0.08 
0.206 0.183 0.0886 0.336 0.401 0.0912 0.174 0.047 0.0459 
0.882 0.179 0.42 0.362 0.28 0.622 0.533 0.77 0.79 
2 0.444 0 0 0.425 0.6 0.071 0.37 0.201 
0.55 1.4 0.0043 0.13 0.22 0.004 0.07 0.2405 0.555 
1.299999 0.037 0.033 0 0.23 0.16 0.837 0.651 1.724 
0.851 0.812 0.944 1.121 0.715 0.387 0.464 0.559 1.419 
0.206 0.36 0.44 0.5 0.64 0.62 0.75 1.02 1.44 
1.54 2.21 2.15 2.72 0 0.11 0.142 0 0.14 
0.6 13.5 6.8 5.1 0.003 0.0051 0.006 0.1 0.92 
0 0.307 0.3563 0.1517 1.147 2.516 1.85 0.6808 1.0175 
1.5466 1.0445 0.910622 1.030643 1.25812 1.104495 0 0.09 0.08 
0 0 0 0 0.08 0.206 0.183 0.0886 0.336 
0.401 0.0912 0.174 0.047 0.0459 0.882 0.179 0.42 0.362 
0.28 0.622 0.533 0.77 0.79 2 0.444 0 0 
0.425 0.6 0.071 0.37 0.201 0.55 1.4 0.0043 0.13 
0.22 0.004 0.07 0.2405 0.555 1.299999 0.037 0.033 0 
0.23 0.16 0.837 0.651 1.724 0.851 0.812 0.944 1.121 
0.715 0.387 0.464 0.559 1.419 0.206 0.36 0.44 0.5 
0.64 0.62 0.75 1.02 1.44 1.54 2.21 2.15 2.72 
0 0.11 0.142 0 0.14 0.6 13.5 6.8 5.1 
0.003 0.0051 0.006 0.1 0.92 0 0.307 0.3563 0.1517 
1.147 2.516 1.85 0.6808 1.0175 1.5466 1.0445 0.910622 1.030643 
1.25812 1.104495 0 0.09 0.08 0 0 0 0 
0.08 0.206 0.183 0.0886 0.336 0.401 0.0912 0.174 0.047 
0.0459 0.882 0.179 0.42 0.362 0.28 0.622 0.533 0.77 
0.79 2 0.444 0 0 0.425 0.6 0.071 0.37 
0.201 0.55 1.4 0.0043 0.13 0.22 0.004 0.07 0.2405 
0.555 1.299999 0.037 0.033 0 0.23 0.16 0.837 0.651 
1.724 0.851 0.812 0.944 1.121 0.715 0.387 0.464 0.559 
1.419 0.206 0.36 0.44 0.5 0.64 0.62 0.75 1.02 
1.44 1.54 2.21 2.15 2.72 0 0.11 0.142 0 
0.14 0.6 13.5 6.8 5.1 0.003 0.0051 0.006 0.1 
0.92 0 0.307 0.3563 0.1517 1.147 2.516 1.85 0.6808 
1.0175 1.5466 1.0445 0.910622 1.030643 1.25812 1.104495 0 0.09 
0.08 0 0 0 0 0.08 0.206 0.183 0.0886 
0.336 0.401 0.0912 0.174 0.047 0.0459 0.882 0.179 0.42 
0.362 0.28 0.622 0.533 0.77 0.79 2 0.444 0 
0 0.425 0.6 0.071 0.37 0.201 0.55 1.4 0.0043 
0.13 0.22 0.004 0.07 0.2405 0.555 1.299999 0.037 0.033 
0 0.23 0.16 0.837 0.651 1.724 0.851 0.812 0.944 
1.121 0.715 0.387 0.464 0.559 1.419 0.206 0.36 0.44 
0.5 0.64 0.62 0.75 1.02 1.44 1.54 2.21 2.15 
2.72 0 0.11 0.142 0 0.14 0.6 13.5 6.8 
5.1 0.003 0.0051 0.006 0.1 0.92 0 0.307 0.3563 
0.1517 1.147 2.516 1.85 0.6808 1.0175 1.5466 1.0445 0.910622 
1.030643 1.25812 1.104495 0 0.09 0.08 0 0 0 
0 0.08 0.206 0.183 0.0886 0.336 0.401 0.0912 0.174 
0.047 0.0459 0.882 0.179 0.42 0.362 0.28 0.622 0.533 
0.77 0.79 2 0.444 0 0 0.425 0.6 0.071 
0.37 0.201 0.55 1.4 0.0043 0.13 0.22 0.004 0.07 
0.2405 0.555 1.299999 0.037 0.033 0 0.23 0.16 0.837 
0.651 1.724 0.851 0.812 0.944 1.121 0.715 0.387 0.464 
0.559 1.419 0.206 0.36 0.44 0.5 0.64 0.62 0.75 
1.02 1.44 1.54 2.21 2.15 2.72 0 0.11 0.142 
0 0.14 0.6 13.5 6.8 5.1 0.003 0.0051 0.006 
0.1 0.92 0 0.307 0.3563 0.1517 1.147 2.516 1.85 
0.6808 1.0175 1.5466 1.0445 0.910622 1.030643 1.25812 1.104495 0 
0.09 0.08 0 0 0 0 0.08 0.206 0.183 
0.0886 0.336 0.401 0.0912 0.174 0.047 0.0459 0.882 0.179 
0.42 
FIELD FieldData 2
CS134 1 1144 double
0.00965 0.0046 0 0.118 0 0.15 0.34 0.067 0.088 
0.08 0 0.19 0 0.1 0 0 0.1 0 
0.03 0.07 0 0.03 0.074 0.1628 0.48 0.003 0.0087 
0.005 0.075 0.035 0.213 0.46 0.593 0.407 0.407 0.444 
0.463 0.267 0.148 0.152 0.222 0.496 0.086 0 0 
0 0 0 0 0 0 0 0 0 
0 0.05 0.037 0.033 0.05 0 0 0 0 
0 0.0003 0 0.0003 0.017 0.23 0.0481 0.077 0.1029 
0.094424 0.34595 0.58201 0.37037 0.2849 0.32967 0.35002 0.497671 0.326865 
0.276423 0.399095 0.358949 0.0205 0 0 0 0 0 
0 0 0.00757 0.0127 0.00378 0.0122 0.00713 0.0057 0.014 
0.00732 0.00441 0.231 0.04 0.05 0.00965 0.0046 0 0.118 
0 0.15 0.34 0.067 0.088 0.08 0 0.19 0 
0.1 0 0 0.1 0 0.03 0.07 0 0.03 
0.074 0.1628 0.48 0.003 0.0087 0.005 0.075 0.035 0.213 
0.46 0.593 0.407 0.407 0.444 0.463 0.267 0.148 0.152 
0.222 0.496 0.086 0 0 0 0 0 0 
0 0 0 0 0 0 0.05 0.037 0.033 
0.05 0 0 0 0 0 0.0003 0 0.0003 
0.017 0.23 0.0481 0.077 0.1029 0.094424 0.34595 0.58201 0.37037 
0.2849 0.32967 0.35002 0.497671 0.326865 0.276423 0.399095 0.358949 0.0205 
0 0 0 0 0 0 0 0.00757 0.0127 
0.00378 0.0122 0.00713 0.0057 0.014 0.00732 0.00441 0.231 0.04 
0.05 0.00965 0.0046 0 0.118 0 0.15 0.34 0.067 
0.088 0.08 0 0.19 0 0.1 0 0 0.1 
0 0.03 0.07 0 0.03 0.074 0.1628 0.48 0.003 
0.0087 0.005 0.075 0.035 0.213 0.46 0.593 0.407 0.407 
0.444 0.463 0.267 0.148 0.152 0.222 0.496 0.086 0 
0 0 0 0 0 0 0 0 0 
0 0 0.05 0.037 0.033 0.05 0 0 0 
0 0 0.0003 0 0.0003 0.017 0.23 0.0481 0.077 
0.1029 0.094424 0.34595 0.58201 0.37037 0.2849 0.32967 0.35002 0.497671 
0.326865 0.276423 0.399095 0.358949 0.0205 0 0 0 0 
0 0 0 0.00757 0.0127 0.00378 0.0122 0.00713 0.0057 
0.014 0.00732 0.00441 0.231 0.04 0.05 0.00965 0.0046 0 
0.118 0 0.15 0.34 0.067 0.088 0.08 0 0.19 
0 0.1 0 0 0.1 0 0.03 0.07 0 
0.03 0.074 0.1628 0.48 0.003 0.0087 0.005 0.075 0.035 
0.213 0.46 0.593 0.407 0.407 0.444 0.463 0.267 0.148 
0.152 0.222 0.496 0.086 0 0 0 0 0 
0 0 0 0 0 0 0 0.05 0.037 
0.033 0.05 0 0 0 0 0 0.0003 0 
0.0003 0.017 0.23 0.0481 0.077 0.1029 0.094424 0.34595 0.58201 
0.37037 0.2849 0.32967 0.35002 0.497671 0.326865 0.276423 0.399095 0.358949 
0.0205 0 0 0 0 0 0 0 0.00757 
0.0127 0.00378 0.0122 0.00713 0.0057 0.014 0.00732 0.00441 0.231 
0.04 0.05 0.00965 0.0046 0 0.118 0 0.15 0.34 
0.067 0.088 0.08 0 0.19 0 0.1 0 0 
0.1 0 0.03 0.07 0 0.03 0.074 0.1628 0.48 
0.003 0.0087 0.005 0.075 0.035 0.213 0.46 0.593 0.407 
0.407 0.444 0.463 0.267 0.148 0.152 0.222 0.496 0.086 
0 0 0 0 0 0 0 0 0 
0 0 0 0.05 0.037 0.033 0.05 0 0 
0 0 0 0.0003 0 0.0003 0.017 0.23 0.0481 
0.077 0.1029 0.094424 0.34595 0.58201 0.37037 0.2849 0.32967 0.35002 
0.497671 0.326865 0.276423 0.399095 0.358949 0.0205 0 0 0 
0 0 0 0 0.00757 0.0127 0.00378 0.0122 0.00713 
0.0057 0.014 0.00732 0.00441 0.231 0.04 0.05 0.00965 0.0046 
0 0.118 0 0.15 0.34 0.067 0.088 0.08 0 
0.19 0 0.1 0 0 0.1 0 0.03 0.07 
0 0.03 0.074 0.1628 0.48 0.003 0.0087 0.005 0.075 
0.035 0.213 0.46 0.593 0.407 0.407 0.444 0.463 0.267 
0.148 0.152 0.222 0.496 0.086 0 0 0 0 
0 0 0 0 0 0 0 0 0.05 
0.037 0.033 0.05 0 0 0 0 0 0.0003 
0 0.0003 0.017 0.23 0.0481 0.077 0.1029 0.094424 0.34595 
0.58201 0.37037 0.2849 0.32967 0.35002 0.497671 0.326865 0.276423 0.399095 
0.358949 0.0205 0 0 0 0 0 0 0 
0.00757 0.0127 0.00378 0.0122 0.00713 0.0057 0.014 0.00732 0.00441 
0.231 0.04 0.05 0.00965 0.0046 0 0.118 0 0.15 
0.34 0.067 0.088 0.08 0 0.19 0 0.1 0 
0 0.1 0 0.03 0.07 0 0.03 0.074 0.1628 
0.48 0.003 0.0087 0.005 0.075 0.035 0.213 0.46 0.593 
0.407 0.407 0.444 0.463 0.267 0.148 0.152 0.222 0.496 
0.086 0 0 0 0 0 0 0 0 
0 0 0 0 0.05 0.037 0.033 0.05 0 
0 0 0 0 0.0003 0 0.0003 0.017 0.23 
0.0481 0.077 0.1029 0.094424 0.34595 0.58201 0.37037 0.2849 0.32967 
0.35002 0.497671 0.326865 0.276423 0.399095 0.358949 0.0205 0 0 
0 0 0 0 0 0.00757 0.0127 0.00378 0.0122 
0.00713 0.0057 0.014 0.00732 0.00441 0.231 0.04 0.05 0.00965 
0.0046 0 0.118 0 0.15 0.34 0.067 0.088 0.08 
0 0.19 0 0.1 0 0 0.1 0 0.03 
0.07 0 0.03 0.074 0.1628 0.48 0.003 0.0087 0.005 
0.075 0.035 0.213 0.46 0.593 0.407 0.407 0.444 0.463 
0.267 0.148 0.152 0.222 0.496 0.086 0 0 0 
0 0 0 0 0 0 0 0 0 
0.05 0.037 0.033 0.05 0 0 0 0 0 
0.0003 0 0.0003 0.017 0.23 0.0481 0.077 0.1029 0.094424 
0.34595 0.58201 0.37037 0.2849 0.32967 0.35002 0.497671 0.326865 0.276423 
0.399095 0.358949 0.0205 0 0 0 0 0 0 
0 0.00757 0.0127 0.00378 0.0122 0.00713 0.0057 0.014 0.00732 
0.00441 0.231 0.04 0.05 0.00965 0.0046 0 0.118 0 
0.15 0.34 0.067 0.088 0.08 0 0.19 0 0.1 
0 0 0.1 0 0.03 0.07 0 0.03 0.074 
0.1628 0.48 0.003 0.0087 0.005 0.075 0.035 0.213 0.46 
0.593 0.407 0.407 0.444 0.463 0.267 0.148 0.152 0.222 
0.496 0.086 0 0 0 0 0 0 0 
0 0 0 0 0 0.05 0.037 0.033 0.05 
0 0 0 0 0 0.0003 0 0.0003 0.017 
0.23 0.0481 0.077 0.1029 0.094424 0.34595 0.58201 0.37037 0.2849 
0.32967 0.35002 0.497671 0.326865 0.276423 0.399095 0.358949 0.0205 0 
0 0 0 0 0 0 0.00757 0.0127 0.00378 
0.0122 0.00713 0.0057 0.014 0.00732 0.00441 0.231 0.04 0.05 
0.00965 0.0046 0 0.118 0 0.15 0.34 0.067 0.088 
0.08 0 0.19 0 0.1 0 0 0.1 0 
0.03 0.07 0 0.03 0.074 0.1628 0.48 0.003 0.0087 
0.005 0.075 0.035 0.213 0.46 0.593 0.407 0.407 0.444 
0.463 0.267 0.148 0.152 0.222 0.496 0.086 0 0 
0 0 0 0 0 0 0 0 0 
0 0.05 0.037 0.033 0.05 0 0 0 0 
0 0.0003 0 0.0003 0.017 0.23 0.0481 0.077 0.1029 
0.094424 0.34595 0.58201 0.37037 0.2849 0.32967 0.35002 0.497671 0.326865 
0.276423 0.399095 0.358949 0.0205 0 0 0 0 0 
0 0 0.00757 0.0127 0.00378 0.0122 0.00713 0.0057 0.014 
0.00732 0.00441 0.231 0.04 0.05 0.00965 0.0046 0 0.118 
0 0.15 0.34 0.067 0.088 0.08 0 0.19 0 
0.1 0 0 0.1 0 0.03 0.07 0 0.03 
0.074 0.1628 0.48 0.003 0.0087 0.005 0.075 0.035 0.213 
0.46 0.593 0.407 0.407 0.444 0.463 0.267 0.148 0.152 
0.222 0.496 0.086 0 0 0 0 0 0 
0 0 0 0 0 0 0.05 0.037 0.033 
0.05 0 0 0 0 0 0.0003 0 0.0003 
0.017 0.23 0.0481 0.077 0.1029 0.094424 0.34595 0.58201 0.37037 
0.2849 0.32967 0.35002 0.497671 0.326865 0.276423 0.399095 0.358949 0.0205 
0 0 0 0 0 0 0 0.00757 0.0127 
0.00378 0.0122 0.00713 0.0057 0.014 0.00732 0.00441 0.231 0.04 
0.05 
CS137 1 1144 double
0.01544 0.00741 0.625 0.0015 0.59 0.31 0.86 0.13 0.17 
0.13 0.309 0.46 0.0063 0.16 0.149 0.28 0.31 0 
0.07 0.11 0 0.05 0.1258 0.333 1 0.005 0.017 
0.01 0.18 0.067 0.421 0.925 1.074 0.889 0.815 0.926 
0.963 0.519 0.296 0.289 0.419 0.922 0.164 0.05 0.06 
0.07 0.09 0.09 0.11 0.15 0.21 0.22 0.32 0.32 
0.41 0 0.073 0.063 0.15 0.034 0.22 2.2 2 
3 0.0003 0 0.0006 0.033 0.48 0.093 0.151 0.2061 
0.17464 0.666 1.147 0.666 0.4773 0.592 0.629 0.764485 0.423799 
0.422709 0.775719 0.613653 0.035 0.02 0.001 0.0065 0.01 0.013 
0.027 0.0011 0.0128 0.0198 0.0067 0.0207 0.0119 0.00924 0.0227 
0.0123 0.00742 0.02 0.067 0.09 0.01544 0.00741 0.625 0.0015 
0.59 0.31 0.86 0.13 0.17 0.13 0.309 0.46 0.0063 
0.16 0.149 0.28 0.31 0 0.07 0.11 0 0.05 
0.1258 0.333 1 0.005 0.017 0.01 0.18 0.067 0.421 
0.925 1.074 0.889 0.815 0.926 0.963 0.519 0.296 0.289 
0.419 0.922 0.164 0.05 0.06 0.07 0.09 0.09 0.11 
0.15 0.21 0.22 0.32 0.32 0.41 0 0.073 0.063 
0.15 0.034 0.22 2.2 2 3 0.0003 0 0.0006 
0.033 0.48 0.093 0.151 0.2061 0.17464 0.666 1.147 0.666 
0.4773 0.592 0.629 0.764485 0.423799 0.422709 0.775719 0.613653 0.035 
0.02 0.001 0.0065 0.01 0.013 0.027 0.0011 0.0128 0.0198 
0.0067 0.0207 0.0119 0.00924 0.0227 0.0123 0.00742 0.02 0.067 
0.09 0.01544 0.00741 0.625 0.0015 0.59 0.31 0.86 0.13 
0.17 0.13 0.309 0.46 0.0063 0.16 0.149 0.28 0.31 
0 0.07 0.11 0 0.05 0.1258 0.333 1 0.005 
0.017 0.01 0.18 0.067 0.421 0.925 1.074 0.889 0.815 
0.926 0.963 0.519 0.296 0.289 0.419 0.922 0.164 0.05 
0.06 0.07 0.09 0.09 0.11 0.15 0.21 0.22 0.32 
0.32 0.41 0 0.073 0.063 0.15 0.034 0.22 2.2 
2 3 0.0003 0 0.0006 0.033 0.48 0.093 0.151 
0.2061 0.17464 0.666 1.147 0.666 0.4773 0.592 0.629 0.764485 
0.423799 0.422709 0.775719 0.613653 0.035 0.02 0.001 0.0065 0.01 
0.013 0.027 0.0011 0.0128 0.0198 0.0067 0.0207 0.0119 0.00924 
0.0227 0.0123 0.00742 0.02 0.067 0.09 0.01544 0.00741 0.625 
0.0015 0.59 0.31 0.86 0.13 0.17 0.13 0.309 0.46 
0.0063 0.16 0.149 0.28 0.31 0 0.07 0.11 0 
0.05 0.1258 0.333 1 0.005 0.017 0.01 0.18 0.067 
0.421 0.925 1.074 0.889 0.815 0.926 0.963 0.519 0.296 
0.289 0.419 0.922 0.164 0.05 0.06 0.07 0.09 0.09 
0.11 0.15 0.21 0.22 0.32 0.32 0.41 0 0.073 
0.063 0.15 0.034 0.22 2.2 2 3 0.0003 0 
0.0006 0.033 0.48 0.093 0.151 0.2061 0.17464 0.666 1.147 
0.666 0.4773 0.592 0.629 0.764485 0.423799 0.422709 0.775719 0.613653 
0.035 0.02 0.001 0.0065 0.01 0.013 0.027 0.0011 0.0128 
0.0198 0.0067 0.0207 0.0119 0.00924 0.0227 0.0123 0.00742 0.02 
0.067 0.09 0.01544 0.00741 0.625 0.0015 0.59 0.31 0.86 
0.13 0.17 0.13 0.309 0.46 0.0063 0.16 0.149 0.28 
0.31 0 0.07 0.11 0 0.05 0.1258 0.333 1 
0.005 0.017 0.01 0.18 0.067 0.421 0.925 1.074 0.889 
0.815 0.926 0.963 0.519 0.296 0.289 0.419 0.922 0.164 
0.05 0.06 0.07 0.09 0.09 0.11 0.15 0.21 0.22 
0.32 0.32 0.41 0 0.073 0.063 0.15 0.034 0.22 
2.2 2 3 0.0003 0 0.0006 0.033 0.48 0.093 
0.151 0.2061 0.17464 0.666 1.147 0.666 0.4773 0.592 0.629 
0.764485 0.423799 0.422709 0.775719 0.613653 0.035 0.02 0.001 0.0065 
0.01 0.013 0.027 0.0011 0.0128 0.0198 0.0067 0.0207 0.0119 
0.00924 0.0227 0.0123 0.00742 0.02 0.067 0.09 0.01544 0.00741 
0.625 0.0015 0.59 0.31 0.86 0.13 0.17 0.13 0.309 
0.46 0.0063 0.16 0.149 0.28 0.31 0 0.07 0.11 
0 0.05 0.1258 0.333 1 0.005 0.017 0.01 0.18 
0.067 0.421 0.925 1.074 0.889 0.815 0.926 0.963 0.519 
0.296 0.289 0.419 0.922 0.164 0.05 0.06 0.07 0.09 
0.09 0.11 0.15 0.21 0.22 0.32 0.32 0.41 0 
0.073 0.063 0.15 0.034 0.22 2.2 2 3 0.0003 
0 0.0006 0.033 0.48 0.093 0.151 0.2061 0.17464 0.666 
1.147 0.666 0.4773 0.592 0.629 0.764485 0.423799 0.422709 0.775719 
0.613653 0.035 0.02 0.001 0.0065 0.01 0.013 0.027 0.0011 
0.0128 0.0198 0.0067 0.0207 0.0119 0.00924 0.0227 0.0123 0.00742 
0.02 0.067 0.09 0.01544 0.00741 0.625 0.0015 0.59 0.31 
0.86 0.13 0.17 0.13 0.309 0.46 0.0063 0.16 0.149 
0.28 0.31 0 0.07 0.11 0 0.05 0.1258 0.333 
1 0.005 0.017 0.01 0.18 0.067 0.421 0.925 1.074 
0.889 0.815 0.926 0.963 0.519 0.296 0.289 0.419 0.922 
0.164 0.05 0.06 0.07 0.09 0.09 0.11 0.15 0.21 
0.22 0.32 0.32 0.41 0 0.073 0.063 0.15 0.034 
0.22 2.2 2 3 0.0003 0 0.0006 0.033 0.48 
0.093 0.151 0.2061 0.17464 0.666 1.147 0.666 0.4773 0.592 
0.629 0.764485 0.423799 0.422709 0.775719 0.613653 0.035 0.02 0.001 
0.0065 0.01 0.013 0.027 0.0011 0.0128 0.0198 0.0067 0.0207 
0.0119 0.00924 0.0227 0.0123 0.00742 0.02 0.067 0.09 0.01544 
0.00741 0.625 0.0015 0.59 0.31 0.86 0.13 0.17 0.13 
0.309 0.46 0.0063 0.16 0.149 0.28 0.31 0 0.07 
0.11 0 0.05 0.1258 0.333 1 0.005 0.017 0.01 
0.18 0.067 0.421 0.925 1.074 0.889 0.815 0.926 0.963 
0.519 0.296 0.289 0.419 0.922 0.164 0.05 0.06 0.07 
0.09 0.09 0.11 0.15 0.21 0.22 0.32 0.32 0.41 
0 0.073 0.063 0.15 0.034 0.22 2.2 2 3 
0.0003 0 0.0006 0.033 0.48 0.093 0.151 0.2061 0.17464 
0.666 1.147 0.666 0.4773 0.592 0.629 0.764485 0.423799 0.422709 
0.775719 0.613653 0.035 0.02 0.001 0.0065 0.01 0.013 0.027 
0.0011 0.0128 0.0198 0.0067 0.0207 0.0119 0.00924 0.0227 0.0123 
0.00742 0.02 0.067 0.09 0.01544 0.00741 0.625 0.0015 0.59 
0.31 0.86 0.13 0.17 0.13 0.309 0.46 0.0063 0.16 
0.149 0.28 0.31 0 0.07 0.11 0 0.05 0.1258 
0.333 1 0.005 0.017 0.01 0.18 0.067 0.421 0.925 
1.074 0.889 0.815 0.926 0.963 0.519 0.296 0.289 0.419 
0.922 0.164 0.05 0.06 0.07 0.09 0.09 0.11 0.15 
0.21 0.22 0.32 0.32 0.41 0 0.073 0.063 0.15 
0.034 0.22 2.2 2 3 0.0003 0 0.0006 0.033 
0.48 0.093 0.151 0.2061 0.17464 0.666 1.147 0.666 0.4773 
0.592 0.629 0.764485 0.423799 0.422709 0.775719 0.613653 0.035 0.02 
0.001 0.0065 0.01 0.013 0.027 0.0011 0.0128 0.0198 0.0067 
0.0207 0.0119 0.00924 0.0227 0.0123 0.00742 0.02 0.067 0.09 
0.01544 0.00741 0.625 0.0015 0.59 0.31 0.86 0.13 0.17 
0.13 0.309 0.46 0.0063 0.16 0.149 0.28 0.31 0 
0.07 0.11 0 0.05 0.1258 0.333 1 0.005 0.017 
0.01 0.18 0.067 0.421 0.925 1.074 0.889 0.815 0.926 
0.963 0.519 0.296 0.289 0.419 0.922 0.164 0.05 0.06 
0.07 0.09 0.09 0.11 0.15 0.21 0.22 0.32 0.32 
0.41 0 0.073 0.063 0.15 0.034 0.22 2.2 2 
3 0.0003 0 0.0006 0.033 0.48 0.093 0.151 0.2061 
0.17464 0.666 1.147 0.666 0.4773 0.592 0.629 0.764485 0.423799 
0.422709 0.775719 0.613653 0.035 0.02 0.001 0.0065 0.01 0.013 
0.027 0.0011 0.0128 0.0198 0.0067 0.0207 0.0119 0.00924 0.0227 
0.0123 0.00742 0.02 0.067 0.09 0.01544 0.00741 0.625 0.0015 
0.59 0.31 0.86 0.13 0.17 0.13 0.309 0.46 0.0063 
0.16 0.149 0.28 0.31 0 0.07 0.11 0 0.05 
0.1258 0.333 1 0.005 0.017 0.01 0.18 0.067 0.421 
0.925 1.074 0.889 0.815 0.926 0.963 0.519 0.296 0.289 
0.419 0.922 0.164 0.05 0.06 0.07 0.09 0.09 0.11 
0.15 0.21 0.22 0.32 0.32 0.41 0 0.073 0.063 
0.15 0.034 0.22 2.2 2 3 0.0003 0 0.0006 
0.033 0.48 0.093 0.151 0.2061 0.17464 0.666 1.147 0.666 
0.4773 0.592 0.629 0.764485 0.423799 0.422709 0.775719 0.613653 0.035 
0.02 0.001 0.0065 0.01 0.013 0.027 0.0011 0.0128 0.0198 
0.0067 0.0207 0.0119 0.00924 0.0227 0.0123 0.00742 0.02 0.067 
0.09 
