# vtk DataFile Version 5.1
vtk output
ASCII
DATASET POLYDATA
POINTS 176 double
12.07 55.7 0 0.25 47.15 0 4.8 44.63 0 
2.31 51 0 11.33 44.48 0 16.63 40.17 0 
23.78 38 0 21.79 40.31 0 22.95 40.59 0 
-4.83 56 0 5.12 51.18 0 12 57.75 0 
13.92 56.82 0 18.08 59.33 0 20.25 63.83 0 
21.25 48.73 0 12.07 55.7 0 0.25 47.15 0 
4.8 44.63 0 2.31 51 0 11.33 44.48 0 
16.63 40.17 0 23.78 38 0 21.79 40.31 0 
22.95 40.59 0 -4.83 56 0 5.12 51.18 0 
12 57.75 0 13.92 56.82 0 18.08 59.33 0 
20.25 63.83 0 21.25 48.73 0 12.07 55.7 1 
0.25 47.15 1 4.8 44.63 1 2.31 51 1 
11.33 44.48 1 16.63 40.17 1 23.78 38 1 
21.79 40.31 1 22.95 40.59 1 -4.83 56 1 
5.12 51.18 1 12 57.75 1 13.92 56.82 1 
18.08 59.33 1 20.25 63.83 1 21.25 48.73 1 
12.07 55.7 2 0.25 47.15 2 4.8 44.63 2 
2.31 51 2 11.33 44.48 2 16.63 40.17 2 
23.78 38 2 21.79 40.31 2 22.95 40.59 2 
-4.83 56 2 5.12 51.18 2 12 57.75 2 
13.92 56.82 2 18.08 59.33 2 20.25 63.83 2 
21.25 48.73 2 12.07 55.7 3 0.25 47.15 3 
4.8 44.63 3 2.31 51 3 11.33 44.48 3 
16.63 40.17 3 23.78 38 3 21.79 40.31 3 
22.95 40.59 3 -4.83 56 3 5.12 51.18 3 
12 57.75 3 13.92 56.82 3 18.08 59.33 3 
20.25 63.83 3 21.25 48.73 3 12.07 55.7 4 
0.25 47.15 4 4.8 44.63 4 2.31 51 4 
11.33 44.48 4 16.63 40.17 4 23.78 38 4 
21.79 40.31 4 22.95 40.59 4 -4.83 56 4 
5.12 51.18 4 12 57.75 4 13.92 56.82 4 
18.08 59.33 4 20.25 63.83 4 21.25 48.73 4 
12.07 55.7 5 0.25 47.15 5 4.8 44.63 5 
2.31 51 5 11.33 44.48 5 16.63 40.17 5 
23.78 38 5 21.79 40.31 5 22.95 40.59 5 
-4.83 56 5 5.12 51.18 5 12 57.75 5 
13.92 56.82 5 18.08 59.33 5 20.25 63.83 5 
21.25 48.73 5 12.07 55.7 6 0.25 47.15 6 
4.8 44.63 6 2.31 51 6 11.33 44.48 6 
16.63 40.17 6 23.78 38 6 21.79 40.31 6 
22.95 40.59 6 -4.83 56 6 5.12 51.18 6 
12 57.75 6 13.92 56.82 6 18.08 59.33 6 
20.25 63.83 6 21.25 48.73 6 12.07 55.7 7 
0.25 47.15 7 4.8 44.63 7 2.31 51 7 
11.33 44.48 7 16.63 40.17 7 23.78 38 7 
21.79 40.31 7 22.95 40.59 7 -4.83 56 7 
5.12 51.18 7 12 57.75 7 13.92 56.82 7 
18.08 59.33 7 20.25 63.83 7 21.25 48.73 7 
12.07 55.7 8 0.25 47.15 8 4.8 44.63 8 
2.31 51 8 11.33 44.48 8 16.63 40.17 8 
23.78 38 8 21.79 40.31 8 22.95 40.59 8 
-4.83 56 8 5.12 51.18 8 12 57.75 8 
13.92 56.82 8 18.08 59.33 8 20.25 63.83 8 
21.25 48.73 8 12.07 55.7 9 0.25 47.15 9 
4.8 44.63 9 2.31 51 9 11.33 44.48 9 
16.63 40.17 9 23.78 38 9 21.79 40.31 9 
22.95 40.59 9 -4.83 56 9 5.12 51.18 9 
12 57.75 9 13.92 56.82 9 18.08 59.33 9 
20.25 63.83 9 21.25 48.73 9 
VERTICES 177 176
OFFSETS vtktypeint64
0 1 2 3 4 5 6 7 8 
9 10 11 12 13 14 15 16 17 
18 19 20 21 22 23 24 25 26 
27 28 29 30 31 32 33 34 35 
36 37 38 39 40 41 42 43 44 
45 46 47 48 49 50 51 52 53 
54 55 56 57 58 59 60 61 62 
63 64 65 66 67 68 69 70 71 
72 73 74 75 76 77 78 79 80 
81 82 83 84 85 86 87 88 89 
90 91 92 93 94 95 96 97 98 
99 100 101 102 103 104 105 106 107 
108 109 110 111 112 113 114 115 116 
117 118 119 120 121 122 123 124 125 
126 127 128 129 130 131 132 133 134 
135 136 137 138 139 140 141 142 143 
144 145 146 147 148 149 150 151 152 
153 154 155 156 157 158 159 160 161 
162 163 164 165 166 167 168 169 170 
171 172 173 174 175 176 
CONNECTIVITY vtktypeint64
0 1 2 3 4 5 6 7 8 
9 10 11 12 13 14 15 16 17 
18 19 20 21 22 23 24 25 26 
27 28 29 30 31 32 33 34 35 
36 37 38 39 40 41 42 43 44 
45 46 47 48 49 50 51 52 53 
54 55 56 57 58 59 60 61 62 
63 64 65 66 67 68 69 70 71 
72 73 74 75 76 77 78 79 80 
81 82 83 84 85 86 87 88 89 
90 91 92 93 94 95 96 97 98 
99 100 101 102 103 104 105 106 107 
108 109 110 111 112 113 114 115 116 
117 118 119 120 121 122 123 124 125 
126 127 128 129 130 131 132 133 134 
135 136 137 138 139 140 141 142 143 
144 145 146 147 148 149 150 151 152 
153 154 155 156 157 158 159 160 161 
162 163 164 165 166 167 168 169 170 
171 172 173 174 175 
POINT_DATA 176
SCALARS I131 double
LOOKUP_TABLE default
0.002772 0.0038 0.0017 0.0052 0.01 0.006 0.13 0.06 0.06 
0.0026 0.0056 0.00113 0.00118 0.00154 0.00217 0.0049 0.002772 0.0038 
0.0017 0.0052 0.01 0.006 0.13 0.06 0.06 0.0026 0.0056 
0.00113 0.00118 0.00154 0.00217 0.0049 0.002772 0.0038 0.0017 0.0052 
0.01 0.006 0.13 0.06 0.06 0.0026 0.0056 0.00113 0.00118 
0.00154 0.00217 0.0049 0.002772 0.0038 0.0017 0.0052 0.01 0.006 
0.13 0.06 0.06 0.0026 0.0056 0.00113 0.00118 0.00154 0.00217 
0.0049 0.002772 0.0038 0.0017 0.0052 0.01 0.006 0.13 0.06 
0.06 0.0026 0.0056 0.00113 0.00118 0.00154 0.00217 0.0049 0.002772 
0.0038 0.0017 0.0052 0.01 0.006 0.13 0.06 0.06 0.0026 
0.0056 0.00113 0.00118 0.00154 0.00217 0.0049 0.002772 0.0038 0.0017 
0.0052 0.01 0.006 0.13 0.06 0.06 0.0026 0.0056 0.00113 
0.00118 0.00154 0.00217 0.0049 0.002772 0.0038 0.0017 0.0052 0.01 
0.006 0.13 0.06 0.06 0.0026 0.0056 0.00113 0.00118 0.00154 
0.00217 0.0049 0.002772 0.0038 0.0017 0.0052 0.01 0.006 0.13 
0.06 0.06 0.0026 0.0056 0.00113 0.00118 0.00154 0.00217 0.0049 
0.002772 0.0038 0.0017 0.0052 0.01 0.006 0.13 0.06 0.06 
0.0026 0.0056 0.00113 0.00118 0.00154 0.00217 0.0049 0.002772 0.0038 
0.0017 0.0052 0.01 0.006 0.13 0.06 0.06 0.0026 0.0056 
0.00113 0.00118 0.00154 0.00217 0.0049 
FIELD FieldData 2
CS134 1 176 double
0.000451 0 0 0 0.001 0.002 0 0 0 
0.0011 0.00148 0.00023 0.000105 0.000491 0.000462 0.0009 0.000451 0 
0 0 0.001 0.002 0 0 0 0.0011 0.00148 
0.00023 0.000105 0.000491 0.000462 0.0009 0.000451 0 0 0 
0.001 0.002 0 0 0 0.0011 0.00148 0.00023 0.000105 
0.000491 0.000462 0.0009 0.000451 0 0 0 0.001 0.002 
0 0 0 0.0011 0.00148 0.00023 0.000105 0.000491 0.000462 
0.0009 0.000451 0 0 0 0.001 0.002 0 0 
0 0.0011 0.00148 0.00023 0.000105 0.000491 0.000462 0.0009 0.000451 
0 0 0 0.001 0.002 0 0 0 0.0011 
0.00148 0.00023 0.000105 0.000491 0.000462 0.0009 0.000451 0 0 
0 0.001 0.002 0 0 0 0.0011 0.00148 0.00023 
0.000105 0.000491 0.000462 0.0009 0.000451 0 0 0 0.001 
0.002 0 0 0 0.0011 0.00148 0.00023 0.000105 0.000491 
0.000462 0.0009 0.000451 0 0 0 0.001 0.002 0 
0 0 0.0011 0.00148 0.00023 0.000105 0.000491 0.000462 0.0009 
0.000451 0 0 0 0.001 0.002 0 0 0 
0.0011 0.00148 0.00023 0.000105 0.000491 0.000462 0.0009 0.000451 0 
0 0 0.001 0.002 0 0 0 0.0011 0.00148 
0.00023 0.000105 0.000491 0.000462 0.0009 
CS137 1 176 double
0.000783 0 0.001 0 0.002 0.003 0 0 0 
0.002 0.0028 0.000398 0.000173 0.000827 0.00079 0.0017 0.000783 0 
0.001 0 0.002 0.003 0 0 0 0.002 0.0028 
0.000398 0.000173 0.000827 0.00079 0.0017 0.000783 0 0.001 0 
0.002 0.003 0 0 0 0.002 0.0028 0.000398 0.000173 
0.000827 0.00079 0.0017 0.000783 0 0.001 0 0.002 0.003 
0 0 0 0.002 0.0028 0.000398 0.000173 0.000827 0.00079 
0.0017 0.000783 0 0.001 0 0.002 0.003 0 0 
0 0.002 0.0028 0.000398 0.000173 0.000827 0.00079 0.0017 0.000783 
0 0.001 0 0.002 0.003 0 0 0 0.002 
0.0028 0.000398 0.000173 0.000827 0.00079 0.0017 0.000783 0 0.001 
0 0.002 0.003 0 0 0 0.002 0.0028 0.000398 
0.000173 0.000827 0.00079 0.0017 0.000783 0 0.001 0 0.002 
0.003 0 0 0 0.002 0.0028 0.000398 0.000173 0.000827 
0.00079 0.0017 0.000783 0 0.001 0 0.002 0.003 0 
0 0 0.002 0.0028 0.000398 0.000173 0.000827 0.00079 0.0017 
0.000783 0 0.001 0 0.002 0.003 0 0 0 
0.002 0.0028 0.000398 0.000173 0.000827 0.00079 0.0017 0.000783 0 
0.001 0 0.002 0.003 0 0 0 0.002 0.0028 
0.000398 0.000173 0.000827 0.00079 0.0017 
