# vtk DataFile Version 5.1
vtk output
ASCII
DATASET POLYDATA
POINTS 77 double
12.07 55.7 0 9.95 51.53 0 4.38 52 0 
23.78 38 0 24.7 60.45 0 18.08 59.33 0 
21.25 48.73 0 12.07 55.7 0 9.95 51.53 0 
4.38 52 0 23.78 38 0 24.7 60.45 0 
18.08 59.33 0 21.25 48.73 0 12.07 55.7 1 
9.95 51.53 1 4.38 52 1 23.78 38 1 
24.7 60.45 1 18.08 59.33 1 21.25 48.73 1 
12.07 55.7 2 9.95 51.53 2 4.38 52 2 
23.78 38 2 24.7 60.45 2 18.08 59.33 2 
21.25 48.73 2 12.07 55.7 3 9.95 51.53 3 
4.38 52 3 23.78 38 3 24.7 60.45 3 
18.08 59.33 3 21.25 48.73 3 12.07 55.7 4 
9.95 51.53 4 4.38 52 4 23.78 38 4 
24.7 60.45 4 18.08 59.33 4 21.25 48.73 4 
12.07 55.7 5 9.95 51.53 5 4.38 52 5 
23.78 38 5 24.7 60.45 5 18.08 59.33 5 
21.25 48.73 5 12.07 55.7 6 9.95 51.53 6 
4.38 52 6 23.78 38 6 24.7 60.45 6 
18.08 59.33 6 21.25 48.73 6 12.07 55.7 7 
9.95 51.53 7 4.38 52 7 23.78 38 7 
24.7 60.45 7 18.08 59.33 7 21.25 48.73 7 
12.07 55.7 8 9.95 51.53 8 4.38 52 8 
23.78 38 8 24.7 60.45 8 18.08 59.33 8 
21.25 48.73 8 12.07 55.7 9 9.95 51.53 9 
4.38 52 9 23.78 38 9 24.7 60.45 9 
18.08 59.33 9 21.25 48.73 9 
VERTICES 78 77
OFFSETS vtktypeint64
0 1 2 3 4 5 6 7 8 
9 10 11 12 13 14 15 16 17 
18 19 20 21 22 23 24 25 26 
27 28 29 30 31 32 33 34 35 
36 37 38 39 40 41 42 43 44 
45 46 47 48 49 50 51 52 53 
54 55 56 57 58 59 60 61 62 
63 64 65 66 67 68 69 70 71 
72 73 74 75 76 77 
CONNECTIVITY vtktypeint64
0 1 2 3 4 5 6 7 8 
9 10 11 12 13 14 15 16 17 
18 19 20 21 22 23 24 25 26 
27 28 29 30 31 32 33 34 35 
36 37 38 39 40 41 42 43 44 
45 46 47 48 49 50 51 52 53 
54 55 56 57 58 59 60 61 62 
63 64 65 66 67 68 69 70 71 
72 73 74 75 76 
POINT_DATA 77
SCALARS I131 double
LOOKUP_TABLE default
0.000482 0.0023 0 0.02 0 0.000524 0.0023 0.000482 0.0023 
0 0.02 0 0.000524 0.0023 0.000482 0.0023 0 0.02 
0 0.000524 0.0023 0.000482 0.0023 0 0.02 0 0.000524 
0.0023 0.000482 0.0023 0 0.02 0 0.000524 0.0023 0.000482 
0.0023 0 0.02 0 0.000524 0.0023 0.000482 0.0023 0 
0.02 0 0.000524 0.0023 0.000482 0.0023 0 0.02 0 
0.000524 0.0023 0.000482 0.0023 0 0.02 0 0.000524 0.0023 
0.000482 0.0023 0 0.02 0 0.000524 0.0023 0.000482 0.0023 
0 0.02 0 0.000524 0.0023 
FIELD FieldData 2
CS134 1 77 double
0.000196 0.0009 0.001 0 0.00087 0.000451 0.0009 0.000196 0.0009 
0.001 0 0.00087 0.000451 0.0009 0.000196 0.0009 0.001 0 
0.00087 0.000451 0.0009 0.000196 0.0009 0.001 0 0.00087 0.000451 
0.0009 0.000196 0.0009 0.001 0 0.00087 0.000451 0.0009 0.000196 
0.0009 0.001 0 0.00087 0.000451 0.0009 0.000196 0.0009 0.001 
0 0.00087 0.000451 0.0009 0.000196 0.0009 0.001 0 0.00087 
0.000451 0.0009 0.000196 0.0009 0.001 0 0.00087 0.000451 0.0009 
0.000196 0.0009 0.001 0 0.00087 0.000451 0.0009 0.000196 0.0009 
0.001 0 0.00087 0.000451 0.0009 
CS137 1 77 double
0.00033 0.0018 0.003 0 0.00157 0.000802 0.0017 0.00033 0.0018 
0.003 0 0.00157 0.000802 0.0017 0.00033 0.0018 0.003 0 
0.00157 0.000802 0.0017 0.00033 0.0018 0.003 0 0.00157 0.000802 
0.0017 0.00033 0.0018 0.003 0 0.00157 0.000802 0.0017 0.00033 
0.0018 0.003 0 0.00157 0.000802 0.0017 0.00033 0.0018 0.003 
0 0.00157 0.000802 0.0017 0.00033 0.0018 0.003 0 0.00157 
0.000802 0.0017 0.00033 0.0018 0.003 0 0.00157 0.000802 0.0017 
0.00033 0.0018 0.003 0 0.00157 0.000802 0.0017 0.00033 0.0018 
0.003 0 0.00157 0.000802 0.0017 
