# vtk DataFile Version 5.1
vtk output
ASCII
DATASET POLYDATA
POINTS 143 double
12.07 55.7 0 9.95 51.53 0 4.8 44.63 0 
2.36 48.85 0 23.78 38 0 21.79 40.31 0 
22.95 40.59 0 5.12 51.18 0 12 57.75 0 
13.92 56.82 0 14.67 63.17 0 18.08 59.33 0 
20.25 63.83 0 12.07 55.7 0 9.95 51.53 0 
4.8 44.63 0 2.36 48.85 0 23.78 38 0 
21.79 40.31 0 22.95 40.59 0 5.12 51.18 0 
12 57.75 0 13.92 56.82 0 14.67 63.17 0 
18.08 59.33 0 20.25 63.83 0 12.07 55.7 1 
9.95 51.53 1 4.8 44.63 1 2.36 48.85 1 
23.78 38 1 21.79 40.31 1 22.95 40.59 1 
5.12 51.18 1 12 57.75 1 13.92 56.82 1 
14.67 63.17 1 18.08 59.33 1 20.25 63.83 1 
12.07 55.7 2 9.95 51.53 2 4.8 44.63 2 
2.36 48.85 2 23.78 38 2 21.79 40.31 2 
22.95 40.59 2 5.12 51.18 2 12 57.75 2 
13.92 56.82 2 14.67 63.17 2 18.08 59.33 2 
20.25 63.83 2 12.07 55.7 3 9.95 51.53 3 
4.8 44.63 3 2.36 48.85 3 23.78 38 3 
21.79 40.31 3 22.95 40.59 3 5.12 51.18 3 
12 57.75 3 13.92 56.82 3 14.67 63.17 3 
18.08 59.33 3 20.25 63.83 3 12.07 55.7 4 
9.95 51.53 4 4.8 44.63 4 2.36 48.85 4 
23.78 38 4 21.79 40.31 4 22.95 40.59 4 
5.12 51.18 4 12 57.75 4 13.92 56.82 4 
14.67 63.17 4 18.08 59.33 4 20.25 63.83 4 
12.07 55.7 5 9.95 51.53 5 4.8 44.63 5 
2.36 48.85 5 23.78 38 5 21.79 40.31 5 
22.95 40.59 5 5.12 51.18 5 12 57.75 5 
13.92 56.82 5 14.67 63.17 5 18.08 59.33 5 
20.25 63.83 5 12.07 55.7 6 9.95 51.53 6 
4.8 44.63 6 2.36 48.85 6 23.78 38 6 
21.79 40.31 6 22.95 40.59 6 5.12 51.18 6 
12 57.75 6 13.92 56.82 6 14.67 63.17 6 
18.08 59.33 6 20.25 63.83 6 12.07 55.7 7 
9.95 51.53 7 4.8 44.63 7 2.36 48.85 7 
23.78 38 7 21.79 40.31 7 22.95 40.59 7 
5.12 51.18 7 12 57.75 7 13.92 56.82 7 
14.67 63.17 7 18.08 59.33 7 20.25 63.83 7 
12.07 55.7 8 9.95 51.53 8 4.8 44.63 8 
2.36 48.85 8 23.78 38 8 21.79 40.31 8 
22.95 40.59 8 5.12 51.18 8 12 57.75 8 
13.92 56.82 8 14.67 63.17 8 18.08 59.33 8 
20.25 63.83 8 12.07 55.7 9 9.95 51.53 9 
4.8 44.63 9 2.36 48.85 9 23.78 38 9 
21.79 40.31 9 22.95 40.59 9 5.12 51.18 9 
12 57.75 9 13.92 56.82 9 14.67 63.17 9 
18.08 59.33 9 20.25 63.83 9 
VERTICES 144 143
OFFSETS vtktypeint64
0 1 2 3 4 5 6 7 8 
9 10 11 12 13 14 15 16 17 
18 19 20 21 22 23 24 25 26 
27 28 29 30 31 32 33 34 35 
36 37 38 39 40 41 42 43 44 
45 46 47 48 49 50 51 52 53 
54 55 56 57 58 59 60 61 62 
63 64 65 66 67 68 69 70 71 
72 73 74 75 76 77 78 79 80 
81 82 83 84 85 86 87 88 89 
90 91 92 93 94 95 96 97 98 
99 100 101 102 103 104 105 106 107 
108 109 110 111 112 113 114 115 116 
117 118 119 120 121 122 123 124 125 
126 127 128 129 130 131 132 133 134 
135 136 137 138 139 140 141 142 143 

CONNECTIVITY vtktypeint64
0 1 2 3 4 5 6 7 8 
9 10 11 12 13 14 15 16 17 
18 19 20 21 22 23 24 25 26 
27 28 29 30 31 32 33 34 35 
36 37 38 39 40 41 42 43 44 
45 46 47 48 49 50 51 52 53 
54 55 56 57 58 59 60 61 62 
63 64 65 66 67 68 69 70 71 
72 73 74 75 76 77 78 79 80 
81 82 83 84 85 86 87 88 89 
90 91 92 93 94 95 96 97 98 
99 100 101 102 103 104 105 106 107 
108 109 110 111 112 113 114 115 116 
117 118 119 120 121 122 123 124 125 
126 127 128 129 130 131 132 133 134 
135 136 137 138 139 140 141 142 
POINT_DATA 143
SCALARS I131 double
LOOKUP_TABLE default
0.002507 0.0027 0.0013 0.0007 0.04 0.04 0.02 0.0035 0.00109 
0.00167 0.00112 0.000972 0.00173 0.002507 0.0027 0.0013 0.0007 0.04 
0.04 0.02 0.0035 0.00109 0.00167 0.00112 0.000972 0.00173 0.002507 
0.0027 0.0013 0.0007 0.04 0.04 0.02 0.0035 0.00109 0.00167 
0.00112 0.000972 0.00173 0.002507 0.0027 0.0013 0.0007 0.04 0.04 
0.02 0.0035 0.00109 0.00167 0.00112 0.000972 0.00173 0.002507 0.0027 
0.0013 0.0007 0.04 0.04 0.02 0.0035 0.00109 0.00167 0.00112 
0.000972 0.00173 0.002507 0.0027 0.0013 0.0007 0.04 0.04 0.02 
0.0035 0.00109 0.00167 0.00112 0.000972 0.00173 0.002507 0.0027 0.0013 
0.0007 0.04 0.04 0.02 0.0035 0.00109 0.00167 0.00112 0.000972 
0.00173 0.002507 0.0027 0.0013 0.0007 0.04 0.04 0.02 0.0035 
0.00109 0.00167 0.00112 0.000972 0.00173 0.002507 0.0027 0.0013 0.0007 
0.04 0.04 0.02 0.0035 0.00109 0.00167 0.00112 0.000972 0.00173 
0.002507 0.0027 0.0013 0.0007 0.04 0.04 0.02 0.0035 0.00109 
0.00167 0.00112 0.000972 0.00173 0.002507 0.0027 0.0013 0.0007 0.04 
0.04 0.02 0.0035 0.00109 0.00167 0.00112 0.000972 0.00173 
FIELD FieldData 2
CS134 1 143 double
0.001439 0.0011 0 0 0 0 0 0.0015 0.00121 
0.00113 0.000687 0.000522 0.000827 0.001439 0.0011 0 0 0 
0 0 0.0015 0.00121 0.00113 0.000687 0.000522 0.000827 0.001439 
0.0011 0 0 0 0 0 0.0015 0.00121 0.00113 
0.000687 0.000522 0.000827 0.001439 0.0011 0 0 0 0 
0 0.0015 0.00121 0.00113 0.000687 0.000522 0.000827 0.001439 0.0011 
0 0 0 0 0 0.0015 0.00121 0.00113 0.000687 
0.000522 0.000827 0.001439 0.0011 0 0 0 0 0 
0.0015 0.00121 0.00113 0.000687 0.000522 0.000827 0.001439 0.0011 0 
0 0 0 0 0.0015 0.00121 0.00113 0.000687 0.000522 
0.000827 0.001439 0.0011 0 0 0 0 0 0.0015 
0.00121 0.00113 0.000687 0.000522 0.000827 0.001439 0.0011 0 0 
0 0 0 0.0015 0.00121 0.00113 0.000687 0.000522 0.000827 
0.001439 0.0011 0 0 0 0 0 0.0015 0.00121 
0.00113 0.000687 0.000522 0.000827 0.001439 0.0011 0 0 0 
0 0 0.0015 0.00121 0.00113 0.000687 0.000522 0.000827 
CS137 1 143 double
0.002599 0.002 0 6e-06 0 0 0 0.0031 0.00209 
0.00193 0.00116 0.000893 0.00146 0.002599 0.002 0 6e-06 0 
0 0 0.0031 0.00209 0.00193 0.00116 0.000893 0.00146 0.002599 
0.002 0 6e-06 0 0 0 0.0031 0.00209 0.00193 
0.00116 0.000893 0.00146 0.002599 0.002 0 6e-06 0 0 
0 0.0031 0.00209 0.00193 0.00116 0.000893 0.00146 0.002599 0.002 
0 6e-06 0 0 0 0.0031 0.00209 0.00193 0.00116 
0.000893 0.00146 0.002599 0.002 0 6e-06 0 0 0 
0.0031 0.00209 0.00193 0.00116 0.000893 0.00146 0.002599 0.002 0 
6e-06 0 0 0 0.0031 0.00209 0.00193 0.00116 0.000893 
0.00146 0.002599 0.002 0 6e-06 0 0 0 0.0031 
0.00209 0.00193 0.00116 0.000893 0.00146 0.002599 0.002 0 6e-06 
0 0 0 0.0031 0.00209 0.00193 0.00116 0.000893 0.00146 
0.002599 0.002 0 6e-06 0 0 0 0.0031 0.00209 
0.00193 0.00116 0.000893 0.00146 0.002599 0.002 0 6e-06 0 
0 0 0.0031 0.00209 0.00193 0.00116 0.000893 0.00146 
