# vtk DataFile Version 5.1
vtk output
ASCII
DATASET POLYDATA
POINTS 165 double
12.07 55.7 0 9.95 51.53 0 9.73 52.38 0 
7.15 53.71 0 23.78 38 0 22.95 40.59 0 
5.12 51.18 0 5.12 51.18 0 24.7 60.45 0 
12 57.75 0 13.92 56.82 0 13.92 56.82 0 
18.08 59.33 0 20.25 63.83 0 21.25 48.73 0 
12.07 55.7 0 9.95 51.53 0 9.73 52.38 0 
7.15 53.71 0 23.78 38 0 22.95 40.59 0 
5.12 51.18 0 5.12 51.18 0 24.7 60.45 0 
12 57.75 0 13.92 56.82 0 13.92 56.82 0 
18.08 59.33 0 20.25 63.83 0 21.25 48.73 0 
12.07 55.7 1 9.95 51.53 1 9.73 52.38 1 
7.15 53.71 1 23.78 38 1 22.95 40.59 1 
5.12 51.18 1 5.12 51.18 1 24.7 60.45 1 
12 57.75 1 13.92 56.82 1 13.92 56.82 1 
18.08 59.33 1 20.25 63.83 1 21.25 48.73 1 
12.07 55.7 2 9.95 51.53 2 9.73 52.38 2 
7.15 53.71 2 23.78 38 2 22.95 40.59 2 
5.12 51.18 2 5.12 51.18 2 24.7 60.45 2 
12 57.75 2 13.92 56.82 2 13.92 56.82 2 
18.08 59.33 2 20.25 63.83 2 21.25 48.73 2 
12.07 55.7 3 9.95 51.53 3 9.73 52.38 3 
7.15 53.71 3 23.78 38 3 22.95 40.59 3 
5.12 51.18 3 5.12 51.18 3 24.7 60.45 3 
12 57.75 3 13.92 56.82 3 13.92 56.82 3 
18.08 59.33 3 20.25 63.83 3 21.25 48.73 3 
12.07 55.7 4 9.95 51.53 4 9.73 52.38 4 
7.15 53.71 4 23.78 38 4 22.95 40.59 4 
5.12 51.18 4 5.12 51.18 4 24.7 60.45 4 
12 57.75 4 13.92 56.82 4 13.92 56.82 4 
18.08 59.33 4 20.25 63.83 4 21.25 48.73 4 
12.07 55.7 5 9.95 51.53 5 9.73 52.38 5 
7.15 53.71 5 23.78 38 5 22.95 40.59 5 
5.12 51.18 5 5.12 51.18 5 24.7 60.45 5 
12 57.75 5 13.92 56.82 5 13.92 56.82 5 
18.08 59.33 5 20.25 63.83 5 21.25 48.73 5 
12.07 55.7 6 9.95 51.53 6 9.73 52.38 6 
7.15 53.71 6 23.78 38 6 22.95 40.59 6 
5.12 51.18 6 5.12 51.18 6 24.7 60.45 6 
12 57.75 6 13.92 56.82 6 13.92 56.82 6 
18.08 59.33 6 20.25 63.83 6 21.25 48.73 6 
12.07 55.7 7 9.95 51.53 7 9.73 52.38 7 
7.15 53.71 7 23.78 38 7 22.95 40.59 7 
5.12 51.18 7 5.12 51.18 7 24.7 60.45 7 
12 57.75 7 13.92 56.82 7 13.92 56.82 7 
18.08 59.33 7 20.25 63.83 7 21.25 48.73 7 
12.07 55.7 8 9.95 51.53 8 9.73 52.38 8 
7.15 53.71 8 23.78 38 8 22.95 40.59 8 
5.12 51.18 8 5.12 51.18 8 24.7 60.45 8 
12 57.75 8 13.92 56.82 8 13.92 56.82 8 
18.08 59.33 8 20.25 63.83 8 21.25 48.73 8 
12.07 55.7 9 9.95 51.53 9 9.73 52.38 9 
7.15 53.71 9 23.78 38 9 22.95 40.59 9 
5.12 51.18 9 5.12 51.18 9 24.7 60.45 9 
12 57.75 9 13.92 56.82 9 13.92 56.82 9 
18.08 59.33 9 20.25 63.83 9 21.25 48.73 9 

VERTICES 166 165
OFFSETS vtktypeint64
0 1 2 3 4 5 6 7 8 
9 10 11 12 13 14 15 16 17 
18 19 20 21 22 23 24 25 26 
27 28 29 30 31 32 33 34 35 
36 37 38 39 40 41 42 43 44 
45 46 47 48 49 50 51 52 53 
54 55 56 57 58 59 60 61 62 
63 64 65 66 67 68 69 70 71 
72 73 74 75 76 77 78 79 80 
81 82 83 84 85 86 87 88 89 
90 91 92 93 94 95 96 97 98 
99 100 101 102 103 104 105 106 107 
108 109 110 111 112 113 114 115 116 
117 118 119 120 121 122 123 124 125 
126 127 128 129 130 131 132 133 134 
135 136 137 138 139 140 141 142 143 
144 145 146 147 148 149 150 151 152 
153 154 155 156 157 158 159 160 161 
162 163 164 165 
CONNECTIVITY vtktypeint64
0 1 2 3 4 5 6 7 8 
9 10 11 12 13 14 15 16 17 
18 19 20 21 22 23 24 25 26 
27 28 29 30 31 32 33 34 35 
36 37 38 39 40 41 42 43 44 
45 46 47 48 49 50 51 52 53 
54 55 56 57 58 59 60 61 62 
63 64 65 66 67 68 69 70 71 
72 73 74 75 76 77 78 79 80 
81 82 83 84 85 86 87 88 89 
90 91 92 93 94 95 96 97 98 
99 100 101 102 103 104 105 106 107 
108 109 110 111 112 113 114 115 116 
117 118 119 120 121 122 123 124 125 
126 127 128 129 130 131 132 133 134 
135 136 137 138 139 140 141 142 143 
144 145 146 147 148 149 150 151 152 
153 154 155 156 157 158 159 160 161 
162 163 164 
POINT_DATA 165
SCALARS I131 double
LOOKUP_TABLE default
0.001029 0.0022 0.0021 0.00107 0.02 0.01 0.00159 0.0028 0 
0.000731 0.000804 0.00197 0.000745 0.000948 0.0023 0.001029 0.0022 0.0021 
0.00107 0.02 0.01 0.00159 0.0028 0 0.000731 0.000804 0.00197 
0.000745 0.000948 0.0023 0.001029 0.0022 0.0021 0.00107 0.02 0.01 
0.00159 0.0028 0 0.000731 0.000804 0.00197 0.000745 0.000948 0.0023 
0.001029 0.0022 0.0021 0.00107 0.02 0.01 0.00159 0.0028 0 
0.000731 0.000804 0.00197 0.000745 0.000948 0.0023 0.001029 0.0022 0.0021 
0.00107 0.02 0.01 0.00159 0.0028 0 0.000731 0.000804 0.00197 
0.000745 0.000948 0.0023 0.001029 0.0022 0.0021 0.00107 0.02 0.01 
0.00159 0.0028 0 0.000731 0.000804 0.00197 0.000745 0.000948 0.0023 
0.001029 0.0022 0.0021 0.00107 0.02 0.01 0.00159 0.0028 0 
0.000731 0.000804 0.00197 0.000745 0.000948 0.0023 0.001029 0.0022 0.0021 
0.00107 0.02 0.01 0.00159 0.0028 0 0.000731 0.000804 0.00197 
0.000745 0.000948 0.0023 0.001029 0.0022 0.0021 0.00107 0.02 0.01 
0.00159 0.0028 0 0.000731 0.000804 0.00197 0.000745 0.000948 0.0023 
0.001029 0.0022 0.0021 0.00107 0.02 0.01 0.00159 0.0028 0 
0.000731 0.000804 0.00197 0.000745 0.000948 0.0023 0.001029 0.0022 0.0021 
0.00107 0.02 0.01 0.00159 0.0028 0 0.000731 0.000804 0.00197 
0.000745 0.000948 0.0023 
FIELD FieldData 2
CS134 1 165 double
0.000749 0.0009 0.0009 0.00093 0 0 0.00084 0.00102 0.00099 
0.00104 0.00078 0.00102 0.000701 0.000979 0.0011 0.000749 0.0009 0.0009 
0.00093 0 0 0.00084 0.00102 0.00099 0.00104 0.00078 0.00102 
0.000701 0.000979 0.0011 0.000749 0.0009 0.0009 0.00093 0 0 
0.00084 0.00102 0.00099 0.00104 0.00078 0.00102 0.000701 0.000979 0.0011 
0.000749 0.0009 0.0009 0.00093 0 0 0.00084 0.00102 0.00099 
0.00104 0.00078 0.00102 0.000701 0.000979 0.0011 0.000749 0.0009 0.0009 
0.00093 0 0 0.00084 0.00102 0.00099 0.00104 0.00078 0.00102 
0.000701 0.000979 0.0011 0.000749 0.0009 0.0009 0.00093 0 0 
0.00084 0.00102 0.00099 0.00104 0.00078 0.00102 0.000701 0.000979 0.0011 
0.000749 0.0009 0.0009 0.00093 0 0 0.00084 0.00102 0.00099 
0.00104 0.00078 0.00102 0.000701 0.000979 0.0011 0.000749 0.0009 0.0009 
0.00093 0 0 0.00084 0.00102 0.00099 0.00104 0.00078 0.00102 
0.000701 0.000979 0.0011 0.000749 0.0009 0.0009 0.00093 0 0 
0.00084 0.00102 0.00099 0.00104 0.00078 0.00102 0.000701 0.000979 0.0011 
0.000749 0.0009 0.0009 0.00093 0 0 0.00084 0.00102 0.00099 
0.00104 0.00078 0.00102 0.000701 0.000979 0.0011 0.000749 0.0009 0.0009 
0.00093 0 0 0.00084 0.00102 0.00099 0.00104 0.00078 0.00102 
0.000701 0.000979 0.0011 
CS137 1 165 double
0.0013 0.002 0.0019 0.00189 0 0 0.00167 0.0021 0.0018 
0.00181 0.0014 0.00181 0.00124 0.00174 0.0018 0.0013 0.002 0.0019 
0.00189 0 0 0.00167 0.0021 0.0018 0.00181 0.0014 0.00181 
0.00124 0.00174 0.0018 0.0013 0.002 0.0019 0.00189 0 0 
0.00167 0.0021 0.0018 0.00181 0.0014 0.00181 0.00124 0.00174 0.0018 
0.0013 0.002 0.0019 0.00189 0 0 0.00167 0.0021 0.0018 
0.00181 0.0014 0.00181 0.00124 0.00174 0.0018 0.0013 0.002 0.0019 
0.00189 0 0 0.00167 0.0021 0.0018 0.00181 0.0014 0.00181 
0.00124 0.00174 0.0018 0.0013 0.002 0.0019 0.00189 0 0 
0.00167 0.0021 0.0018 0.00181 0.0014 0.00181 0.00124 0.00174 0.0018 
0.0013 0.002 0.0019 0.00189 0 0 0.00167 0.0021 0.0018 
0.00181 0.0014 0.00181 0.00124 0.00174 0.0018 0.0013 0.002 0.0019 
0.00189 0 0 0.00167 0.0021 0.0018 0.00181 0.0014 0.00181 
0.00124 0.00174 0.0018 0.0013 0.002 0.0019 0.00189 0 0 
0.00167 0.0021 0.0018 0.00181 0.0014 0.00181 0.00124 0.00174 0.0018 
0.0013 0.002 0.0019 0.00189 0 0 0.00167 0.0021 0.0018 
0.00181 0.0014 0.00181 0.00124 0.00174 0.0018 0.0013 0.002 0.0019 
0.00189 0 0 0.00167 0.0021 0.0018 0.00181 0.0014 0.00181 
0.00124 0.00174 0.0018 
