# vtk DataFile Version 5.1
vtk output
ASCII
DATASET POLYDATA
POINTS 121 double
9.95 51.53 0 23.78 38 0 -4.83 56 0 
5.12 51.18 0 25 60.13 0 24.7 60.45 0 
12 57.75 0 13.92 56.82 0 18.08 59.33 0 
20.25 63.83 0 21.25 48.73 0 9.95 51.53 0 
23.78 38 0 -4.83 56 0 5.12 51.18 0 
25 60.13 0 24.7 60.45 0 12 57.75 0 
13.92 56.82 0 18.08 59.33 0 20.25 63.83 0 
21.25 48.73 0 9.95 51.53 1 23.78 38 1 
-4.83 56 1 5.12 51.18 1 25 60.13 1 
24.7 60.45 1 12 57.75 1 13.92 56.82 1 
18.08 59.33 1 20.25 63.83 1 21.25 48.73 1 
9.95 51.53 2 23.78 38 2 -4.83 56 2 
5.12 51.18 2 25 60.13 2 24.7 60.45 2 
12 57.75 2 13.92 56.82 2 18.08 59.33 2 
20.25 63.83 2 21.25 48.73 2 9.95 51.53 3 
23.78 38 3 -4.83 56 3 5.12 51.18 3 
25 60.13 3 24.7 60.45 3 12 57.75 3 
13.92 56.82 3 18.08 59.33 3 20.25 63.83 3 
21.25 48.73 3 9.95 51.53 4 23.78 38 4 
-4.83 56 4 5.12 51.18 4 25 60.13 4 
24.7 60.45 4 12 57.75 4 13.92 56.82 4 
18.08 59.33 4 20.25 63.83 4 21.25 48.73 4 
9.95 51.53 5 23.78 38 5 -4.83 56 5 
5.12 51.18 5 25 60.13 5 24.7 60.45 5 
12 57.75 5 13.92 56.82 5 18.08 59.33 5 
20.25 63.83 5 21.25 48.73 5 9.95 51.53 6 
23.78 38 6 -4.83 56 6 5.12 51.18 6 
25 60.13 6 24.7 60.45 6 12 57.75 6 
13.92 56.82 6 18.08 59.33 6 20.25 63.83 6 
21.25 48.73 6 9.95 51.53 7 23.78 38 7 
-4.83 56 7 5.12 51.18 7 25 60.13 7 
24.7 60.45 7 12 57.75 7 13.92 56.82 7 
18.08 59.33 7 20.25 63.83 7 21.25 48.73 7 
9.95 51.53 8 23.78 38 8 -4.83 56 8 
5.12 51.18 8 25 60.13 8 24.7 60.45 8 
12 57.75 8 13.92 56.82 8 18.08 59.33 8 
20.25 63.83 8 21.25 48.73 8 9.95 51.53 9 
23.78 38 9 -4.83 56 9 5.12 51.18 9 
25 60.13 9 24.7 60.45 9 12 57.75 9 
13.92 56.82 9 18.08 59.33 9 20.25 63.83 9 
21.25 48.73 9 
VERTICES 122 121
OFFSETS vtktypeint64
0 1 2 3 4 5 6 7 8 
9 10 11 12 13 14 15 16 17 
18 19 20 21 22 23 24 25 26 
27 28 29 30 31 32 33 34 35 
36 37 38 39 40 41 42 43 44 
45 46 47 48 49 50 51 52 53 
54 55 56 57 58 59 60 61 62 
63 64 65 66 67 68 69 70 71 
72 73 74 75 76 77 78 79 80 
81 82 83 84 85 86 87 88 89 
90 91 92 93 94 95 96 97 98 
99 100 101 102 103 104 105 106 107 
108 109 110 111 112 113 114 115 116 
117 118 119 120 121 
CONNECTIVITY vtktypeint64
0 1 2 3 4 5 6 7 8 
9 10 11 12 13 14 15 16 17 
18 19 20 21 22 23 24 25 26 
27 28 29 30 31 32 33 34 35 
36 37 38 39 40 41 42 43 44 
45 46 47 48 49 50 51 52 53 
54 55 56 57 58 59 60 61 62 
63 64 65 66 67 68 69 70 71 
72 73 74 75 76 77 78 79 80 
81 82 83 84 85 86 87 88 89 
90 91 92 93 94 95 96 97 98 
99 100 101 102 103 104 105 106 107 
108 109 110 111 112 113 114 115 116 
117 118 119 120 
POINT_DATA 121
SCALARS I131 double
LOOKUP_TABLE default
0.003 0.02 0.0019 0.0043 0.00192 0 0.000784 0.00209 0.00197 
0.00116 0.0042 0.003 0.02 0.0019 0.0043 0.00192 0 0.000784 
0.00209 0.00197 0.00116 0.0042 0.003 0.02 0.0019 0.0043 0.00192 
0 0.000784 0.00209 0.00197 0.00116 0.0042 0.003 0.02 0.0019 
0.0043 0.00192 0 0.000784 0.00209 0.00197 0.00116 0.0042 0.003 
0.02 0.0019 0.0043 0.00192 0 0.000784 0.00209 0.00197 0.00116 
0.0042 0.003 0.02 0.0019 0.0043 0.00192 0 0.000784 0.00209 
0.00197 0.00116 0.0042 0.003 0.02 0.0019 0.0043 0.00192 0 
0.000784 0.00209 0.00197 0.00116 0.0042 0.003 0.02 0.0019 0.0043 
0.00192 0 0.000784 0.00209 0.00197 0.00116 0.0042 0.003 0.02 
0.0019 0.0043 0.00192 0 0.000784 0.00209 0.00197 0.00116 0.0042 
0.003 0.02 0.0019 0.0043 0.00192 0 0.000784 0.00209 0.00197 
0.00116 0.0042 0.003 0.02 0.0019 0.0043 0.00192 0 0.000784 
0.00209 0.00197 0.00116 0.0042 
FIELD FieldData 2
CS134 1 121 double
0.0009 0 0.0011 0.0013 0.01 0.00064 0.000248 0.000986 0.000969 
0.000694 0.0008 0.0009 0 0.0011 0.0013 0.01 0.00064 0.000248 
0.000986 0.000969 0.000694 0.0008 0.0009 0 0.0011 0.0013 0.01 
0.00064 0.000248 0.000986 0.000969 0.000694 0.0008 0.0009 0 0.0011 
0.0013 0.01 0.00064 0.000248 0.000986 0.000969 0.000694 0.0008 0.0009 
0 0.0011 0.0013 0.01 0.00064 0.000248 0.000986 0.000969 0.000694 
0.0008 0.0009 0 0.0011 0.0013 0.01 0.00064 0.000248 0.000986 
0.000969 0.000694 0.0008 0.0009 0 0.0011 0.0013 0.01 0.00064 
0.000248 0.000986 0.000969 0.000694 0.0008 0.0009 0 0.0011 0.0013 
0.01 0.00064 0.000248 0.000986 0.000969 0.000694 0.0008 0.0009 0 
0.0011 0.0013 0.01 0.00064 0.000248 0.000986 0.000969 0.000694 0.0008 
0.0009 0 0.0011 0.0013 0.01 0.00064 0.000248 0.000986 0.000969 
0.000694 0.0008 0.0009 0 0.0011 0.0013 0.01 0.00064 0.000248 
0.000986 0.000969 0.000694 0.0008 
CS137 1 121 double
0.0023 0 0.0023 0.0029 0.005 0.00115 0.000444 0.00174 0.00167 
0.00121 0.0016 0.0023 0 0.0023 0.0029 0.005 0.00115 0.000444 
0.00174 0.00167 0.00121 0.0016 0.0023 0 0.0023 0.0029 0.005 
0.00115 0.000444 0.00174 0.00167 0.00121 0.0016 0.0023 0 0.0023 
0.0029 0.005 0.00115 0.000444 0.00174 0.00167 0.00121 0.0016 0.0023 
0 0.0023 0.0029 0.005 0.00115 0.000444 0.00174 0.00167 0.00121 
0.0016 0.0023 0 0.0023 0.0029 0.005 0.00115 0.000444 0.00174 
0.00167 0.00121 0.0016 0.0023 0 0.0023 0.0029 0.005 0.00115 
0.000444 0.00174 0.00167 0.00121 0.0016 0.0023 0 0.0023 0.0029 
0.005 0.00115 0.000444 0.00174 0.00167 0.00121 0.0016 0.0023 0 
0.0023 0.0029 0.005 0.00115 0.000444 0.00174 0.00167 0.00121 0.0016 
0.0023 0 0.0023 0.0029 0.005 0.00115 0.000444 0.00174 0.00167 
0.00121 0.0016 0.0023 0 0.0023 0.0029 0.005 0.00115 0.000444 
0.00174 0.00167 0.00121 0.0016 
