# vtk DataFile Version 5.1
vtk output
ASCII
DATASET POLYDATA
POINTS 11 double
12.07 55.7 0 12.07 55.7 0 12.07 55.7 1 
12.07 55.7 2 12.07 55.7 3 12.07 55.7 4 
12.07 55.7 5 12.07 55.7 6 12.07 55.7 7 
12.07 55.7 8 12.07 55.7 9 
VERTICES 12 11
OFFSETS vtktypeint64
0 1 2 3 4 5 6 7 8 
9 10 11 
CONNECTIVITY vtktypeint64
0 1 2 3 4 5 6 7 8 
9 10 
POINT_DATA 11
SCALARS I131 double
LOOKUP_TABLE default
1 1 1 1 1 1 1 1 1 
1 1 
FIELD FieldData 2
CS134 1 11 double
0 0 0 0 0 0 0 0 0 
0 0 
CS137 1 11 double
0.24 0.24 0.24 0.24 0.24 0.24 0.24 0.24 0.24 
0.24 0.24 
