# vtk DataFile Version 5.1
vtk output
ASCII
DATASET POLYDATA
POINTS 55 double
23.78 38 0 5.12 51.18 0 -0.37 39.46 0 
13.92 56.82 0 20.25 63.83 0 23.78 38 0 
5.12 51.18 0 -0.37 39.46 0 13.92 56.82 0 
20.25 63.83 0 23.78 38 1 5.12 51.18 1 
-0.37 39.46 1 13.92 56.82 1 20.25 63.83 1 
23.78 38 2 5.12 51.18 2 -0.37 39.46 2 
13.92 56.82 2 20.25 63.83 2 23.78 38 3 
5.12 51.18 3 -0.37 39.46 3 13.92 56.82 3 
20.25 63.83 3 23.78 38 4 5.12 51.18 4 
-0.37 39.46 4 13.92 56.82 4 20.25 63.83 4 
23.78 38 5 5.12 51.18 5 -0.37 39.46 5 
13.92 56.82 5 20.25 63.83 5 23.78 38 6 
5.12 51.18 6 -0.37 39.46 6 13.92 56.82 6 
20.25 63.83 6 23.78 38 7 5.12 51.18 7 
-0.37 39.46 7 13.92 56.82 7 20.25 63.83 7 
23.78 38 8 5.12 51.18 8 -0.37 39.46 8 
13.92 56.82 8 20.25 63.83 8 23.78 38 9 
5.12 51.18 9 -0.37 39.46 9 13.92 56.82 9 
20.25 63.83 9 
VERTICES 56 55
OFFSETS vtktypeint64
0 1 2 3 4 5 6 7 8 
9 10 11 12 13 14 15 16 17 
18 19 20 21 22 23 24 25 26 
27 28 29 30 31 32 33 34 35 
36 37 38 39 40 41 42 43 44 
45 46 47 48 49 50 51 52 53 
54 55 
CONNECTIVITY vtktypeint64
0 1 2 3 4 5 6 7 8 
9 10 11 12 13 14 15 16 17 
18 19 20 21 22 23 24 25 26 
27 28 29 30 31 32 33 34 35 
36 37 38 39 40 41 42 43 44 
45 46 47 48 49 50 51 52 53 
54 
POINT_DATA 55
SCALARS I131 double
LOOKUP_TABLE default
0.02 0.0031 0 0.00225 0.00134 0.02 0.0031 0 0.00225 
0.00134 0.02 0.0031 0 0.00225 0.00134 0.02 0.0031 0 
0.00225 0.00134 0.02 0.0031 0 0.00225 0.00134 0.02 0.0031 
0 0.00225 0.00134 0.02 0.0031 0 0.00225 0.00134 0.02 
0.0031 0 0.00225 0.00134 0.02 0.0031 0 0.00225 0.00134 
0.02 0.0031 0 0.00225 0.00134 0.02 0.0031 0 0.00225 
0.00134 
FIELD FieldData 2
CS134 1 55 double
0 0.00129 0 0.00136 0.00116 0 0.00129 0 0.00136 
0.00116 0 0.00129 0 0.00136 0.00116 0 0.00129 0 
0.00136 0.00116 0 0.00129 0 0.00136 0.00116 0 0.00129 
0 0.00136 0.00116 0 0.00129 0 0.00136 0.00116 0 
0.00129 0 0.00136 0.00116 0 0.00129 0 0.00136 0.00116 
0 0.00129 0 0.00136 0.00116 0 0.00129 0 0.00136 
0.00116 
CS137 1 55 double
0.01 0.0025 0.0012 0.00242 0.00204 0.01 0.0025 0.0012 0.00242 
0.00204 0.01 0.0025 0.0012 0.00242 0.00204 0.01 0.0025 0.0012 
0.00242 0.00204 0.01 0.0025 0.0012 0.00242 0.00204 0.01 0.0025 
0.0012 0.00242 0.00204 0.01 0.0025 0.0012 0.00242 0.00204 0.01 
0.0025 0.0012 0.00242 0.00204 0.01 0.0025 0.0012 0.00242 0.00204 
0.01 0.0025 0.0012 0.00242 0.00204 0.01 0.0025 0.0012 0.00242 
0.00204 
