# vtk DataFile Version 5.1
vtk output
ASCII
DATASET POLYDATA
POINTS 55 double
12.07 55.7 0 9.95 51.53 0 8.77 50.1 0 
22.95 40.59 0 18.08 59.33 0 12.07 55.7 0 
9.95 51.53 0 8.77 50.1 0 22.95 40.59 0 
18.08 59.33 0 12.07 55.7 1 9.95 51.53 1 
8.77 50.1 1 22.95 40.59 1 18.08 59.33 1 
12.07 55.7 2 9.95 51.53 2 8.77 50.1 2 
22.95 40.59 2 18.08 59.33 2 12.07 55.7 3 
9.95 51.53 3 8.77 50.1 3 22.95 40.59 3 
18.08 59.33 3 12.07 55.7 4 9.95 51.53 4 
8.77 50.1 4 22.95 40.59 4 18.08 59.33 4 
12.07 55.7 5 9.95 51.53 5 8.77 50.1 5 
22.95 40.59 5 18.08 59.33 5 12.07 55.7 6 
9.95 51.53 6 8.77 50.1 6 22.95 40.59 6 
18.08 59.33 6 12.07 55.7 7 9.95 51.53 7 
8.77 50.1 7 22.95 40.59 7 18.08 59.33 7 
12.07 55.7 8 9.95 51.53 8 8.77 50.1 8 
22.95 40.59 8 18.08 59.33 8 12.07 55.7 9 
9.95 51.53 9 8.77 50.1 9 22.95 40.59 9 
18.08 59.33 9 
VERTICES 56 55
OFFSETS vtktypeint64
0 1 2 3 4 5 6 7 8 
9 10 11 12 13 14 15 16 17 
18 19 20 21 22 23 24 25 26 
27 28 29 30 31 32 33 34 35 
36 37 38 39 40 41 42 43 44 
45 46 47 48 49 50 51 52 53 
54 55 
CONNECTIVITY vtktypeint64
0 1 2 3 4 5 6 7 8 
9 10 11 12 13 14 15 16 17 
18 19 20 21 22 23 24 25 26 
27 28 29 30 31 32 33 34 35 
36 37 38 39 40 41 42 43 44 
45 46 47 48 49 50 51 52 53 
54 
POINT_DATA 55
SCALARS I131 double
LOOKUP_TABLE default
0.000533 0.0012 0.002 0.01 0.000534 0.000533 0.0012 0.002 0.01 
0.000534 0.000533 0.0012 0.002 0.01 0.000534 0.000533 0.0012 0.002 
0.01 0.000534 0.000533 0.0012 0.002 0.01 0.000534 0.000533 0.0012 
0.002 0.01 0.000534 0.000533 0.0012 0.002 0.01 0.000534 0.000533 
0.0012 0.002 0.01 0.000534 0.000533 0.0012 0.002 0.01 0.000534 
0.000533 0.0012 0.002 0.01 0.000534 0.000533 0.0012 0.002 0.01 
0.000534 
FIELD FieldData 2
CS134 1 55 double
0.000146 0.0007 0.001 0 0.000325 0.000146 0.0007 0.001 0 
0.000325 0.000146 0.0007 0.001 0 0.000325 0.000146 0.0007 0.001 
0 0.000325 0.000146 0.0007 0.001 0 0.000325 0.000146 0.0007 
0.001 0 0.000325 0.000146 0.0007 0.001 0 0.000325 0.000146 
0.0007 0.001 0 0.000325 0.000146 0.0007 0.001 0 0.000325 
0.000146 0.0007 0.001 0 0.000325 0.000146 0.0007 0.001 0 
0.000325 
CS137 1 55 double
0.00033 0.0012 0.0022 0 0.000575 0.00033 0.0012 0.0022 0 
0.000575 0.00033 0.0012 0.0022 0 0.000575 0.00033 0.0012 0.0022 
0 0.000575 0.00033 0.0012 0.0022 0 0.000575 0.00033 0.0012 
0.0022 0 0.000575 0.00033 0.0012 0.0022 0 0.000575 0.00033 
0.0012 0.0022 0 0.000575 0.00033 0.0012 0.0022 0 0.000575 
0.00033 0.0012 0.0022 0 0.000575 0.00033 0.0012 0.0022 0 
0.000575 
